 Entering Gaussian System, Link 0=g09
 Initial command:
 /apps/gaussian/g09/amd-sse4a/l1.exe "/blue/chm6586/le.chen/hw3/f2co/freq/Gau-121507.inp" -scrdir="/blue/chm6586/le.chen/hw3/f2co/freq/"
 Entering Link 1 = /apps/gaussian/g09/amd-sse4a/l1.exe PID=    121508.
  
 Copyright (c) 1988,1990,1992,1993,1995,1998,2003,2009,2013,
            Gaussian, Inc.  All Rights Reserved.
  
 This is part of the Gaussian(R) 09 program.  It is based on
 the Gaussian(R) 03 system (copyright 2003, Gaussian, Inc.),
 the Gaussian(R) 98 system (copyright 1998, Gaussian, Inc.),
 the Gaussian(R) 94 system (copyright 1995, Gaussian, Inc.),
 the Gaussian 92(TM) system (copyright 1992, Gaussian, Inc.),
 the Gaussian 90(TM) system (copyright 1990, Gaussian, Inc.),
 the Gaussian 88(TM) system (copyright 1988, Gaussian, Inc.),
 the Gaussian 86(TM) system (copyright 1986, Carnegie Mellon
 University), and the Gaussian 82(TM) system (copyright 1983,
 Carnegie Mellon University). Gaussian is a federally registered
 trademark of Gaussian, Inc.
  
 This software contains proprietary and confidential information,
 including trade secrets, belonging to Gaussian, Inc.
  
 This software is provided under written license and may be
 used, copied, transmitted, or stored only in accord with that
 written license.
  
 The following legend is applicable only to US Government
 contracts under FAR:
  
                    RESTRICTED RIGHTS LEGEND
  
 Use, reproduction and disclosure by the US Government is
 subject to restrictions as set forth in subparagraphs (a)
 and (c) of the Commercial Computer Software - Restricted
 Rights clause in FAR 52.227-19.
  
 Gaussian, Inc.
 340 Quinnipiac St., Bldg. 40, Wallingford CT 06492
  
  
 ---------------------------------------------------------------
 Warning -- This program may not be used in any manner that
 competes with the business of Gaussian, Inc. or will provide
 assistance to any competitor of Gaussian, Inc.  The licensee
 of this program is prohibited from giving any competitor of
 Gaussian, Inc. access to this program.  By using this program,
 the user acknowledges that Gaussian, Inc. is engaged in the
 business of creating and licensing software in the field of
 computational chemistry and represents and warrants to the
 licensee that it is not a competitor of Gaussian, Inc. and that
 it will not use this program in any manner prohibited above.
 ---------------------------------------------------------------
  

 Cite this work as:
 Gaussian 09, Revision D.01,
 M. J. Frisch, G. W. Trucks, H. B. Schlegel, G. E. Scuseria, 
 M. A. Robb, J. R. Cheeseman, G. Scalmani, V. Barone, B. Mennucci, 
 G. A. Petersson, H. Nakatsuji, M. Caricato, X. Li, H. P. Hratchian, 
 A. F. Izmaylov, J. Bloino, G. Zheng, J. L. Sonnenberg, M. Hada, 
 M. Ehara, K. Toyota, R. Fukuda, J. Hasegawa, M. Ishida, T. Nakajima, 
 Y. Honda, O. Kitao, H. Nakai, T. Vreven, J. A. Montgomery, Jr., 
 J. E. Peralta, F. Ogliaro, M. Bearpark, J. J. Heyd, E. Brothers, 
 K. N. Kudin, V. N. Staroverov, T. Keith, R. Kobayashi, J. Normand, 
 K. Raghavachari, A. Rendell, J. C. Burant, S. S. Iyengar, J. Tomasi, 
 M. Cossi, N. Rega, J. M. Millam, M. Klene, J. E. Knox, J. B. Cross, 
 V. Bakken, C. Adamo, J. Jaramillo, R. Gomperts, R. E. Stratmann, 
 O. Yazyev, A. J. Austin, R. Cammi, C. Pomelli, J. W. Ochterski, 
 R. L. Martin, K. Morokuma, V. G. Zakrzewski, G. A. Voth, 
 P. Salvador, J. J. Dannenberg, S. Dapprich, A. D. Daniels, 
 O. Farkas, J. B. Foresman, J. V. Ortiz, J. Cioslowski, 
 and D. J. Fox, Gaussian, Inc., Wallingford CT, 2013.
 
 ******************************************
 Gaussian 09:  AS64L-G09RevD.01 24-Apr-2013
                 6-Oct-2021 
 ******************************************
 --------------------------------------------------
 # opt=maxcyc=500 freq hf/cc-pvdz geom=connectivity
 --------------------------------------------------
 1/6=500,18=20,19=15,38=1,57=2/1,3;
 2/9=110,12=2,17=6,18=5,40=1/2;
 3/5=16,11=9,16=1,25=1,30=1,71=1/1,2,3;
 4//1;
 5/5=2,38=5/2;
 6/7=2,8=2,9=2,10=2,28=1/1;
 7//1,2,3,16;
 1/6=500,18=20,19=15/3(2);
 2/9=110/2;
 99//99;
 2/9=110/2;
 3/5=16,11=9,16=1,25=1,30=1,71=1/1,2,3;
 4/5=5,16=3,69=1/1;
 5/5=2,38=5/2;
 7//1,2,3,16;
 1/6=500,18=20,19=15/3(-5);
 2/9=110/2;
 6/7=2,8=2,9=2,10=2,19=2,28=1/1;
 99/9=1/99;
 -----
 Title
 -----
 Symbolic Z-matrix:
 Charge =  0 Multiplicity = 1
 C                     0.        0.        0.13658 
 O                     0.        0.        1.29016 
 F                     0.        1.04495  -0.61893 
 F                     0.       -1.04495  -0.61893 
 

 GradGradGradGradGradGradGradGradGradGradGradGradGradGradGradGradGradGrad
 Berny optimization.
 Initialization pass.
                           ----------------------------
                           !    Initial Parameters    !
                           ! (Angstroms and Degrees)  !
 --------------------------                            --------------------------
 ! Name  Definition              Value          Derivative Info.                !
 --------------------------------------------------------------------------------
 ! R1    R(1,2)                  1.1536         estimate D2E/DX2                !
 ! R2    R(1,3)                  1.2895         estimate D2E/DX2                !
 ! R3    R(1,4)                  1.2895         estimate D2E/DX2                !
 ! A1    A(2,1,3)              125.8674         estimate D2E/DX2                !
 ! A2    A(2,1,4)              125.8674         estimate D2E/DX2                !
 ! A3    A(3,1,4)              108.2651         estimate D2E/DX2                !
 ! D1    D(2,1,4,3)            180.0            estimate D2E/DX2                !
 --------------------------------------------------------------------------------
 Trust Radius=3.00D-01 FncErr=1.00D-07 GrdErr=1.00D-07
 Number of steps in this run=    100 maximum allowed number of steps=    100.
 GradGradGradGradGradGradGradGradGradGradGradGradGradGradGradGradGradGrad

                          Input orientation:                          
 ---------------------------------------------------------------------
 Center     Atomic      Atomic             Coordinates (Angstroms)
 Number     Number       Type             X           Y           Z
 ---------------------------------------------------------------------
      1          6           0        0.000000    0.000000    0.136582
      2          8           0        0.000000    0.000000    1.290164
      3          9           0        0.000000    1.044954   -0.618934
      4          9           0        0.000000   -1.044954   -0.618934
 ---------------------------------------------------------------------
                    Distance matrix (angstroms):
                    1          2          3          4
     1  C    0.000000
     2  O    1.153582   0.000000
     3  F    1.289470   2.176369   0.000000
     4  F    1.289470   2.176369   2.089908   0.000000
 Stoichiometry    CF2O
 Framework group  C2V[C2(CO),SGV(F2)]
 Deg. of freedom     3
 Full point group                 C2V     NOp   4
 Largest Abelian subgroup         C2V     NOp   4
 Largest concise Abelian subgroup C2      NOp   2
                         Standard orientation:                         
 ---------------------------------------------------------------------
 Center     Atomic      Atomic             Coordinates (Angstroms)
 Number     Number       Type             X           Y           Z
 ---------------------------------------------------------------------
      1          6           0        0.000000    0.000000    0.136582
      2          8           0        0.000000    0.000000    1.290164
      3          9           0        0.000000    1.044954   -0.618934
      4          9           0        0.000000   -1.044954   -0.618934
 ---------------------------------------------------------------------
 Rotational constants (GHZ):     12.2130756     12.1807983      6.0984578
 Standard basis: CC-pVDZ (5D, 7F)
 There are    27 symmetry adapted cartesian basis functions of A1  symmetry.
 There are     6 symmetry adapted cartesian basis functions of A2  symmetry.
 There are    10 symmetry adapted cartesian basis functions of B1  symmetry.
 There are    17 symmetry adapted cartesian basis functions of B2  symmetry.
 There are    24 symmetry adapted basis functions of A1  symmetry.
 There are     6 symmetry adapted basis functions of A2  symmetry.
 There are    10 symmetry adapted basis functions of B1  symmetry.
 There are    16 symmetry adapted basis functions of B2  symmetry.
    56 basis functions,   132 primitive gaussians,    60 cartesian basis functions
    16 alpha electrons       16 beta electrons
       nuclear repulsion energy       121.8630447241 Hartrees.
 NAtoms=    4 NActive=    4 NUniq=    3 SFac= 1.78D+00 NAtFMM=   60 NAOKFM=F Big=F
 Integral buffers will be    131072 words long.
 Raffenetti 1 integral format.
 Two-electron integral symmetry is turned on.
 One-electron integrals computed using PRISM.
 NBasis=    56 RedAO= T EigKep=  3.05D-02  NBF=    24     6    10    16
 NBsUse=    56 1.00D-06 EigRej= -1.00D+00 NBFU=    24     6    10    16
 ExpMin= 1.52D-01 ExpMax= 1.47D+04 ExpMxC= 5.03D+02 IAcc=1 IRadAn=         1 AccDes= 0.00D+00
 Harris functional with IExCor=  205 and IRadAn=       1 diagonalized for initial guess.
 HarFok:  IExCor=  205 AccDes= 0.00D+00 IRadAn=         1 IDoV= 1 UseB2=F ITyADJ=14
 ICtDFT=  3500011 ScaDFX=  1.000000  1.000000  1.000000  1.000000
 FoFCou: FMM=F IPFlag=           0 FMFlag=      100000 FMFlg1=           0
         NFxFlg=           0 DoJE=T BraDBF=F KetDBF=T FulRan=T
         wScrn=  0.000000 ICntrl=     500 IOpCl=  0 I1Cent=   200000004 NGrid=           0
         NMat0=    1 NMatS0=      1 NMatT0=    0 NMatD0=    1 NMtDS0=    0 NMtDT0=    0
 Petite list used in FoFCou.
 Initial guess orbital symmetries:
       Occupied  (B2) (A1) (A1) (A1) (A1) (B2) (A1) (A1) (B2) (A1)
                 (B1) (A1) (A2) (B2) (B1) (B2)
       Virtual   (B1) (A1) (B2) (A1) (B2) (B1) (A1) (A1) (A1) (B1)
                 (B2) (A1) (B2) (A2) (A1) (B1) (A2) (B1) (B2) (A1)
                 (A1) (B2) (A1) (B2) (A1) (A2) (A1) (B1) (B2) (A1)
                 (A2) (B1) (B2) (A1) (B2) (A2) (B1) (A1) (B2) (A1)
 The electronic state of the initial guess is 1-A1.
 Keep R1 ints in memory in symmetry-blocked form, NReq=2169949.
 Requested convergence on RMS density matrix=1.00D-08 within 128 cycles.
 Requested convergence on MAX density matrix=1.00D-06.
 Requested convergence on             energy=1.00D-06.
 No special actions if energy rises.
 SCF Done:  E(RHF) =  -311.635651843     A.U. after   12 cycles
            NFock= 12  Conv=0.25D-08     -V/T= 1.9999

 **********************************************************************

            Population analysis using the SCF density.

 **********************************************************************

 Orbital symmetries:
       Occupied  (B2) (A1) (A1) (A1) (A1) (B2) (A1) (A1) (B2) (B1)
                 (A1) (A2) (A1) (B2) (B1) (B2)
       Virtual   (B1) (A1) (B2) (A1) (B1) (B2) (A1) (A1) (A1) (B1)
                 (A1) (B2) (B2) (A2) (B1) (A1) (A2) (B1) (B2) (A1)
                 (A1) (B2) (A1) (B2) (A1) (A2) (A1) (B1) (B2) (A1)
                 (A2) (B1) (B2) (A1) (B2) (A2) (B1) (A1) (B2) (A1)
 The electronic state is 1-A1.
 Alpha  occ. eigenvalues --  -26.38933 -26.38929 -20.61240 -11.52889  -1.77480
 Alpha  occ. eigenvalues --   -1.69163  -1.48487  -0.95848  -0.87054  -0.82032
 Alpha  occ. eigenvalues --   -0.80373  -0.72148  -0.69875  -0.69763  -0.57029
 Alpha  occ. eigenvalues --   -0.54855
 Alpha virt. eigenvalues --    0.18477   0.29584   0.46209   0.48294   0.58883
 Alpha virt. eigenvalues --    0.64722   0.67394   0.91339   1.07622   1.23124
 Alpha virt. eigenvalues --    1.27201   1.27677   1.30948   1.31381   1.44556
 Alpha virt. eigenvalues --    1.44641   1.47998   1.61404   1.62754   1.72494
 Alpha virt. eigenvalues --    2.00730   2.11456   2.33101   2.57173   2.63912
 Alpha virt. eigenvalues --    2.96010   3.00435   3.35778   3.47189   3.84503
 Alpha virt. eigenvalues --    3.88342   3.89962   3.90136   3.93566   4.12486
 Alpha virt. eigenvalues --    4.21043   4.21257   4.48138   4.60220   4.64946
          Condensed to atoms (all electrons):
               1          2          3          4
     1  C    3.770880   0.789864   0.388870   0.388870
     2  O    0.789864   7.565241  -0.041422  -0.041422
     3  F    0.388870  -0.041422   8.889954  -0.042773
     4  F    0.388870  -0.041422  -0.042773   8.889954
 Mulliken charges:
               1
     1  C    0.661517
     2  O   -0.272260
     3  F   -0.194628
     4  F   -0.194628
 Sum of Mulliken charges =   0.00000
 Mulliken charges with hydrogens summed into heavy atoms:
               1
     1  C    0.661517
     2  O   -0.272260
     3  F   -0.194628
     4  F   -0.194628
 Electronic spatial extent (au):  <R**2>=            189.2300
 Charge=              0.0000 electrons
 Dipole moment (field-independent basis, Debye):
    X=              0.0000    Y=              0.0000    Z=             -1.1750  Tot=              1.1750
 Quadrupole moment (field-independent basis, Debye-Ang):
   XX=            -18.2475   YY=            -21.0845   ZZ=            -23.1651
   XY=              0.0000   XZ=              0.0000   YZ=              0.0000
 Traceless Quadrupole moment (field-independent basis, Debye-Ang):
   XX=              2.5849   YY=             -0.2522   ZZ=             -2.3327
   XY=              0.0000   XZ=              0.0000   YZ=              0.0000
 Octapole moment (field-independent basis, Debye-Ang**2):
  XXX=              0.0000  YYY=              0.0000  ZZZ=             -9.0476  XYY=              0.0000
  XXY=              0.0000  XXZ=             -1.6688  XZZ=              0.0000  YZZ=              0.0000
  YYZ=             -0.8590  XYZ=              0.0000
 Hexadecapole moment (field-independent basis, Debye-Ang**3):
 XXXX=            -11.4949 YYYY=            -74.6348 ZZZZ=            -93.0281 XXXY=              0.0000
 XXXZ=              0.0000 YYYX=              0.0000 YYYZ=              0.0000 ZZZX=              0.0000
 ZZZY=              0.0000 XXYY=            -14.2518 XXZZ=            -16.5326 YYZZ=            -27.4996
 XXYZ=              0.0000 YYXZ=              0.0000 ZZXY=              0.0000
 N-N= 1.218630447241D+02 E-N=-9.855274555745D+02  KE= 3.116519874782D+02
 Symmetry A1   KE= 1.953526499707D+02
 Symmetry A2   KE= 6.500163207365D+00
 Symmetry B1   KE= 9.770704542203D+00
 Symmetry B2   KE= 1.000284697580D+02
 Calling FoFJK, ICntrl=      2127 FMM=F ISym2X=1 I1Cent= 0 IOpClX= 0 NMat=1 NMatS=1 NMatT=0.
 ***** Axes restored to original set *****
 -------------------------------------------------------------------
 Center     Atomic                   Forces (Hartrees/Bohr)
 Number     Number              X              Y              Z
 -------------------------------------------------------------------
      1        6           0.000000000    0.000000000    0.000003626
      2        8           0.000000000    0.000000000   -0.000033361
      3        9           0.000000000   -0.000012382    0.000014868
      4        9           0.000000000    0.000012382    0.000014868
 -------------------------------------------------------------------
 Cartesian Forces:  Max     0.000033361 RMS     0.000012499

 GradGradGradGradGradGradGradGradGradGradGradGradGradGradGradGradGradGrad
 Berny optimization.
 FormGI is forming the generalized inverse of G from B-inverse, IUseBI=4.
 Internal  Forces:  Max     0.000033361 RMS     0.000016504
 Search for a local minimum.
 Step number   1 out of a maximum of  100
 All quantities printed in internal units (Hartrees-Bohrs-Radians)
 Mixed Optimization -- En-DIIS/RFO-DIIS
 Second derivative matrix not updated -- first step.
 The second derivative matrix:
                          R1        R2        R3        A1        A2
           R1           1.32087
           R2           0.00000   0.70204
           R3           0.00000   0.00000   0.70204
           A1           0.00000   0.00000   0.00000   0.25000
           A2           0.00000   0.00000   0.00000   0.00000   0.25000
           A3           0.00000   0.00000   0.00000   0.00000   0.00000
           D1           0.00000   0.00000   0.00000   0.00000   0.00000
                          A3        D1
           A3           0.25000
           D1           0.00000   0.02889
 ITU=  0
     Eigenvalues ---    0.02889   0.25000   0.25000   0.70204   0.70204
     Eigenvalues ---    1.32087
 RFO step:  Lambda= 0.00000000D+00 EMin= 2.88922794D-02
 Linear search not attempted -- first point.
 Iteration  1 RMS(Cart)=  0.00002331 RMS(Int)=  0.00000000
 Iteration  2 RMS(Cart)=  0.00000000 RMS(Int)=  0.00000000
 ClnCor:  largest displacement from symmetrization is 7.42D-14 for atom     1.
 Variable       Old X    -DE/DX   Delta X   Delta X   Delta X     New X
                                 (Linear)    (Quad)   (Total)
    R1        2.17995  -0.00003   0.00000  -0.00003  -0.00003   2.17993
    R2        2.43675  -0.00002   0.00000  -0.00003  -0.00003   2.43672
    R3        2.43675  -0.00002   0.00000  -0.00003  -0.00003   2.43672
    A1        2.19680   0.00000   0.00000  -0.00002  -0.00002   2.19679
    A2        2.19680   0.00000   0.00000  -0.00002  -0.00002   2.19679
    A3        1.88958   0.00001   0.00000   0.00003   0.00003   1.88961
    D1        3.14159   0.00000   0.00000   0.00000   0.00000   3.14159
         Item               Value     Threshold  Converged?
 Maximum Force            0.000033     0.000450     YES
 RMS     Force            0.000017     0.000300     YES
 Maximum Displacement     0.000042     0.001800     YES
 RMS     Displacement     0.000023     0.001200     YES
 Predicted change in Energy=-1.103722D-09
 Optimization completed.
    -- Stationary point found.
                           ----------------------------
                           !   Optimized Parameters   !
                           ! (Angstroms and Degrees)  !
 --------------------------                            --------------------------
 ! Name  Definition              Value          Derivative Info.                !
 --------------------------------------------------------------------------------
 ! R1    R(1,2)                  1.1536         -DE/DX =    0.0                 !
 ! R2    R(1,3)                  1.2895         -DE/DX =    0.0                 !
 ! R3    R(1,4)                  1.2895         -DE/DX =    0.0                 !
 ! A1    A(2,1,3)              125.8674         -DE/DX =    0.0                 !
 ! A2    A(2,1,4)              125.8674         -DE/DX =    0.0                 !
 ! A3    A(3,1,4)              108.2651         -DE/DX =    0.0                 !
 ! D1    D(2,1,4,3)            180.0            -DE/DX =    0.0                 !
 --------------------------------------------------------------------------------
 GradGradGradGradGradGradGradGradGradGradGradGradGradGradGradGradGradGrad

                          Input orientation:                          
 ---------------------------------------------------------------------
 Center     Atomic      Atomic             Coordinates (Angstroms)
 Number     Number       Type             X           Y           Z
 ---------------------------------------------------------------------
      1          6           0        0.000000    0.000000    0.136582
      2          8           0        0.000000    0.000000    1.290164
      3          9           0        0.000000    1.044954   -0.618934
      4          9           0        0.000000   -1.044954   -0.618934
 ---------------------------------------------------------------------
                    Distance matrix (angstroms):
                    1          2          3          4
     1  C    0.000000
     2  O    1.153582   0.000000
     3  F    1.289470   2.176369   0.000000
     4  F    1.289470   2.176369   2.089908   0.000000
 Stoichiometry    CF2O
 Framework group  C2V[C2(CO),SGV(F2)]
 Deg. of freedom     3
 Full point group                 C2V     NOp   4
 Largest Abelian subgroup         C2V     NOp   4
 Largest concise Abelian subgroup C2      NOp   2
                         Standard orientation:                         
 ---------------------------------------------------------------------
 Center     Atomic      Atomic             Coordinates (Angstroms)
 Number     Number       Type             X           Y           Z
 ---------------------------------------------------------------------
      1          6           0        0.000000    0.000000    0.136582
      2          8           0        0.000000    0.000000    1.290164
      3          9           0        0.000000    1.044954   -0.618934
      4          9           0        0.000000   -1.044954   -0.618934
 ---------------------------------------------------------------------
 Rotational constants (GHZ):     12.2130756     12.1807983      6.0984578
 1\1\GINC-C0700A-S1\FOpt\RHF\CC-pVDZ\C1F2O1\LE.CHEN\06-Oct-2021\0\\# op
 t=maxcyc=500 freq hf/cc-pvdz geom=connectivity\\Title\\0,1\C,0.,0.,0.1
 36582\O,0.,0.,1.290164\F,0.,1.044954,-0.618934\F,0.,-1.044954,-0.61893
 4\\Version=AS64L-G09RevD.01\State=1-A1\HF=-311.6356518\RMSD=2.503e-09\
 RMSF=1.250e-05\Dipole=0.,0.,-0.4622953\Quadrupole=1.9217804,-0.1874794
 ,-1.734301,0.,0.,0.\PG=C02V [C2(C1O1),SGV(F2)]\\@


 IT IS DOUBTED WHETHER A MAN EVER BRINGS HIS FACULTIES TO BEAR WITH THEIR FULL FORCE
 ON A SUBJECT UNTIL HE WRITES UPON IT.

                          -- CICERO
 Job cpu time:       0 days  0 hours  0 minutes  1.1 seconds.
 File lengths (MBytes):  RWF=      5 Int=      0 D2E=      0 Chk=      1 Scr=      1
 Normal termination of Gaussian 09 at Wed Oct  6 23:24:28 2021.
 Link1:  Proceeding to internal job step number  2.
 ----------------------------------------------------------------
 #N Geom=AllCheck Guess=TCheck SCRF=Check GenChk RHF/CC-pVDZ Freq
 ----------------------------------------------------------------
 1/6=500,10=4,29=7,30=1,38=1,40=1/1,3;
 2/12=2,40=1/2;
 3/5=16,11=1,14=-4,16=1,25=1,30=1,70=2,71=2,116=1,140=1/1,2,3;
 4/5=101/1;
 5/5=2,98=1/2;
 8/6=4,10=90,11=11/1;
 10/13=10,15=4/2;
 11/6=3,8=1,9=11,15=111,16=1/1,2,10;
 10/6=1/2;
 6/7=2,8=2,9=2,10=2,18=1,28=1/1;
 7/8=1,10=1,25=1/1,2,3,16;
 1/6=500,10=4,30=1/3;
 99//99;
 Structure from the checkpoint file:  "/blue/chm6586/le.chen/hw3/f2co/freq/Gau-121508.chk"
 -----
 Title
 -----
 Charge =  0 Multiplicity = 1
 Redundant internal coordinates found in file.
 C,0,0.,0.,0.136582
 O,0,0.,0.,1.290164
 F,0,0.,1.044954,-0.618934
 F,0,0.,-1.044954,-0.618934
 Recover connectivity data from disk.

 GradGradGradGradGradGradGradGradGradGradGradGradGradGradGradGradGradGrad
 Berny optimization.
 Initialization pass.
                           ----------------------------
                           !    Initial Parameters    !
                           ! (Angstroms and Degrees)  !
 --------------------------                            --------------------------
 ! Name  Definition              Value          Derivative Info.                !
 --------------------------------------------------------------------------------
 ! R1    R(1,2)                  1.1536         calculate D2E/DX2 analytically  !
 ! R2    R(1,3)                  1.2895         calculate D2E/DX2 analytically  !
 ! R3    R(1,4)                  1.2895         calculate D2E/DX2 analytically  !
 ! A1    A(2,1,3)              125.8674         calculate D2E/DX2 analytically  !
 ! A2    A(2,1,4)              125.8674         calculate D2E/DX2 analytically  !
 ! A3    A(3,1,4)              108.2651         calculate D2E/DX2 analytically  !
 ! D1    D(2,1,4,3)            180.0            calculate D2E/DX2 analytically  !
 --------------------------------------------------------------------------------
 Trust Radius=3.00D-01 FncErr=1.00D-07 GrdErr=1.00D-07
 Number of steps in this run=      2 maximum allowed number of steps=      2.
 GradGradGradGradGradGradGradGradGradGradGradGradGradGradGradGradGradGrad

                          Input orientation:                          
 ---------------------------------------------------------------------
 Center     Atomic      Atomic             Coordinates (Angstroms)
 Number     Number       Type             X           Y           Z
 ---------------------------------------------------------------------
      1          6           0        0.000000    0.000000    0.136582
      2          8           0        0.000000    0.000000    1.290164
      3          9           0        0.000000    1.044954   -0.618934
      4          9           0        0.000000   -1.044954   -0.618934
 ---------------------------------------------------------------------
                    Distance matrix (angstroms):
                    1          2          3          4
     1  C    0.000000
     2  O    1.153582   0.000000
     3  F    1.289470   2.176369   0.000000
     4  F    1.289470   2.176369   2.089908   0.000000
 Stoichiometry    CF2O
 Framework group  C2V[C2(CO),SGV(F2)]
 Deg. of freedom     3
 Full point group                 C2V     NOp   4
 Largest Abelian subgroup         C2V     NOp   4
 Largest concise Abelian subgroup C2      NOp   2
                         Standard orientation:                         
 ---------------------------------------------------------------------
 Center     Atomic      Atomic             Coordinates (Angstroms)
 Number     Number       Type             X           Y           Z
 ---------------------------------------------------------------------
      1          6           0        0.000000    0.000000    0.136582
      2          8           0        0.000000    0.000000    1.290164
      3          9           0        0.000000    1.044954   -0.618934
      4          9           0        0.000000   -1.044954   -0.618934
 ---------------------------------------------------------------------
 Rotational constants (GHZ):     12.2130756     12.1807983      6.0984578
 Standard basis: CC-pVDZ (5D, 7F)
 There are    27 symmetry adapted cartesian basis functions of A1  symmetry.
 There are     6 symmetry adapted cartesian basis functions of A2  symmetry.
 There are    10 symmetry adapted cartesian basis functions of B1  symmetry.
 There are    17 symmetry adapted cartesian basis functions of B2  symmetry.
 There are    24 symmetry adapted basis functions of A1  symmetry.
 There are     6 symmetry adapted basis functions of A2  symmetry.
 There are    10 symmetry adapted basis functions of B1  symmetry.
 There are    16 symmetry adapted basis functions of B2  symmetry.
    56 basis functions,   132 primitive gaussians,    60 cartesian basis functions
    16 alpha electrons       16 beta electrons
       nuclear repulsion energy       121.8630447241 Hartrees.
 NAtoms=    4 NActive=    4 NUniq=    3 SFac= 1.78D+00 NAtFMM=   60 NAOKFM=F Big=F
 Integral buffers will be    131072 words long.
 Raffenetti 1 integral format.
 Two-electron integral symmetry is turned on.
 One-electron integrals computed using PRISM.
 NBasis=    56 RedAO= T EigKep=  3.05D-02  NBF=    24     6    10    16
 NBsUse=    56 1.00D-06 EigRej= -1.00D+00 NBFU=    24     6    10    16
 Initial guess from the checkpoint file:  "/blue/chm6586/le.chen/hw3/f2co/freq/Gau-121508.chk"
 B after Tr=     0.000000    0.000000    0.000000
         Rot=    1.000000    0.000000    0.000000    0.000000 Ang=   0.00 deg.
 Initial guess orbital symmetries:
       Occupied  (B2) (A1) (A1) (A1) (A1) (B2) (A1) (A1) (B2) (B1)
                 (A1) (A2) (A1) (B2) (B1) (B2)
       Virtual   (B1) (A1) (B2) (A1) (B1) (B2) (A1) (A1) (A1) (B1)
                 (A1) (B2) (B2) (A2) (B1) (A1) (A2) (B1) (B2) (A1)
                 (A1) (B2) (A1) (B2) (A1) (A2) (A1) (B1) (B2) (A1)
                 (A2) (B1) (B2) (A1) (B2) (A2) (B1) (A1) (B2) (A1)
 Keep R1 ints in memory in symmetry-blocked form, NReq=2169949.
 Requested convergence on RMS density matrix=1.00D-08 within 128 cycles.
 Requested convergence on MAX density matrix=1.00D-06.
 Requested convergence on             energy=1.00D-06.
 No special actions if energy rises.
 SCF Done:  E(RHF) =  -311.635651843     A.U. after    1 cycles
            NFock=  1  Conv=0.29D-09     -V/T= 1.9999
 Range of M.O.s used for correlation:     1    56
 NBasis=    56 NAE=    16 NBE=    16 NFC=     0 NFV=     0
 NROrb=     56 NOA=    16 NOB=    16 NVA=    40 NVB=    40
          Differentiating once with respect to electric field.
                with respect to dipole field.
          Electric field/nuclear overlap derivatives assumed to be zero.
 Keep R1 ints in memory in symmetry-blocked form, NReq=2155441.
          There are     3 degrees of freedom in the 1st order CPHF.  IDoFFX=0 NUNeed=     3.
      3 vectors produced by pass  0 Test12= 2.13D-14 3.33D-08 XBig12= 3.46D+00 1.39D+00.
 AX will form     3 AO Fock derivatives at one time.
      3 vectors produced by pass  1 Test12= 2.13D-14 3.33D-08 XBig12= 3.57D-01 2.22D-01.
      3 vectors produced by pass  2 Test12= 2.13D-14 3.33D-08 XBig12= 3.39D-02 7.76D-02.
      3 vectors produced by pass  3 Test12= 2.13D-14 3.33D-08 XBig12= 1.49D-03 1.62D-02.
      3 vectors produced by pass  4 Test12= 2.13D-14 3.33D-08 XBig12= 1.77D-04 4.37D-03.
      3 vectors produced by pass  5 Test12= 2.13D-14 3.33D-08 XBig12= 1.91D-05 1.33D-03.
      3 vectors produced by pass  6 Test12= 2.13D-14 3.33D-08 XBig12= 5.19D-07 2.44D-04.
      3 vectors produced by pass  7 Test12= 2.13D-14 3.33D-08 XBig12= 1.67D-08 4.11D-05.
      3 vectors produced by pass  8 Test12= 2.13D-14 3.33D-08 XBig12= 8.46D-10 7.29D-06.
      2 vectors produced by pass  9 Test12= 2.13D-14 3.33D-08 XBig12= 1.16D-11 1.05D-06.
      1 vectors produced by pass 10 Test12= 2.13D-14 3.33D-08 XBig12= 2.55D-13 1.15D-07.
      1 vectors produced by pass 11 Test12= 2.13D-14 3.33D-08 XBig12= 7.61D-15 3.37D-08.
 InvSVY:  IOpt=1 It=  1 EMax= 2.22D-16
 Solved reduced A of dimension    31 with     3 vectors.
 End of Minotr F.D. properties file   721 does not exist.
 End of Minotr F.D. properties file   722 does not exist.
 End of Minotr F.D. properties file   788 does not exist.
 Symmetrizing basis deriv contribution to polar:
 IMax=3 JMax=2 DiffMx= 0.00D+00
 G2DrvN: will do     5 centers at a time, making    1 passes.
 PxScal for G2LodP:  IOpCl= 0 ISclPx=1 IMOff=     1 NMtTot=     4 NTT=    1596 ScalPx= 1.00D+00
 Calling FoFCou, ICntrl=  3107 FMM=F I1Cent=   0 AccDes= 0.00D+00.
 End of G2Drv F.D. properties file   721 does not exist.
 End of G2Drv F.D. properties file   722 does not exist.
 End of G2Drv F.D. properties file   788 does not exist.
          IDoAtm=1111
          Differentiating once with respect to electric field.
                with respect to dipole field.
          Differentiating once with respect to nuclear coordinates.
 Keep R1 ints in memory in symmetry-blocked form, NReq=2155533.
          There are    12 degrees of freedom in the 1st order CPHF.  IDoFFX=4 NUNeed=    12.
 Will reuse    3 saved solutions.
      9 vectors produced by pass  0 Test12= 5.33D-15 8.33D-09 XBig12= 1.39D-01 1.78D-01.
 AX will form     9 AO Fock derivatives at one time.
      9 vectors produced by pass  1 Test12= 5.33D-15 8.33D-09 XBig12= 1.33D-02 6.62D-02.
      9 vectors produced by pass  2 Test12= 5.33D-15 8.33D-09 XBig12= 1.26D-03 2.00D-02.
      9 vectors produced by pass  3 Test12= 5.33D-15 8.33D-09 XBig12= 4.09D-05 2.44D-03.
      9 vectors produced by pass  4 Test12= 5.33D-15 8.33D-09 XBig12= 1.03D-06 2.80D-04.
      9 vectors produced by pass  5 Test12= 5.33D-15 8.33D-09 XBig12= 1.50D-08 3.45D-05.
      9 vectors produced by pass  6 Test12= 5.33D-15 8.33D-09 XBig12= 1.13D-10 3.36D-06.
      6 vectors produced by pass  7 Test12= 5.33D-15 8.33D-09 XBig12= 6.68D-13 2.64D-07.
      1 vectors produced by pass  8 Test12= 5.33D-15 8.33D-09 XBig12= 2.94D-15 1.31D-08.
 InvSVY:  IOpt=1 It=  1 EMax= 5.55D-16
 Solved reduced A of dimension    70 with     9 vectors.
 Isotropic polarizability for W=    0.000000       11.30 Bohr**3.
 End of Minotr F.D. properties file   721 does not exist.
 End of Minotr F.D. properties file   722 does not exist.
 End of Minotr F.D. properties file   788 does not exist.

 **********************************************************************

            Population analysis using the SCF density.

 **********************************************************************

 Orbital symmetries:
       Occupied  (B2) (A1) (A1) (A1) (A1) (B2) (A1) (A1) (B2) (B1)
                 (A1) (A2) (A1) (B2) (B1) (B2)
       Virtual   (B1) (A1) (B2) (A1) (B1) (B2) (A1) (A1) (A1) (B1)
                 (A1) (B2) (B2) (A2) (B1) (A1) (A2) (B1) (B2) (A1)
                 (A1) (B2) (A1) (B2) (A1) (A2) (A1) (B1) (B2) (A1)
                 (A2) (B1) (B2) (A1) (B2) (A2) (B1) (A1) (B2) (A1)
 The electronic state is 1-A1.
 Alpha  occ. eigenvalues --  -26.38933 -26.38929 -20.61240 -11.52889  -1.77480
 Alpha  occ. eigenvalues --   -1.69163  -1.48487  -0.95848  -0.87054  -0.82032
 Alpha  occ. eigenvalues --   -0.80373  -0.72148  -0.69875  -0.69763  -0.57029
 Alpha  occ. eigenvalues --   -0.54855
 Alpha virt. eigenvalues --    0.18477   0.29584   0.46209   0.48294   0.58883
 Alpha virt. eigenvalues --    0.64722   0.67394   0.91339   1.07622   1.23124
 Alpha virt. eigenvalues --    1.27201   1.27677   1.30948   1.31381   1.44556
 Alpha virt. eigenvalues --    1.44641   1.47998   1.61404   1.62754   1.72494
 Alpha virt. eigenvalues --    2.00730   2.11456   2.33101   2.57173   2.63912
 Alpha virt. eigenvalues --    2.96010   3.00435   3.35778   3.47189   3.84503
 Alpha virt. eigenvalues --    3.88342   3.89962   3.90136   3.93566   4.12486
 Alpha virt. eigenvalues --    4.21043   4.21257   4.48138   4.60220   4.64946
          Condensed to atoms (all electrons):
               1          2          3          4
     1  C    3.770880   0.789864   0.388870   0.388870
     2  O    0.789864   7.565241  -0.041422  -0.041422
     3  F    0.388870  -0.041422   8.889954  -0.042773
     4  F    0.388870  -0.041422  -0.042773   8.889954
 Mulliken charges:
               1
     1  C    0.661517
     2  O   -0.272260
     3  F   -0.194628
     4  F   -0.194628
 Sum of Mulliken charges =   0.00000
 Mulliken charges with hydrogens summed into heavy atoms:
               1
     1  C    0.661517
     2  O   -0.272260
     3  F   -0.194628
     4  F   -0.194628
 APT charges:
               1
     1  C    1.920968
     2  O   -0.785039
     3  F   -0.567964
     4  F   -0.567964
 Sum of APT charges =   0.00000
 APT charges with hydrogens summed into heavy atoms:
               1
     1  C    1.920968
     2  O   -0.785039
     3  F   -0.567964
     4  F   -0.567964
 Electronic spatial extent (au):  <R**2>=            189.2300
 Charge=              0.0000 electrons
 Dipole moment (field-independent basis, Debye):
    X=              0.0000    Y=              0.0000    Z=             -1.1750  Tot=              1.1750
 Quadrupole moment (field-independent basis, Debye-Ang):
   XX=            -18.2475   YY=            -21.0845   ZZ=            -23.1651
   XY=              0.0000   XZ=              0.0000   YZ=              0.0000
 Traceless Quadrupole moment (field-independent basis, Debye-Ang):
   XX=              2.5849   YY=             -0.2522   ZZ=             -2.3327
   XY=              0.0000   XZ=              0.0000   YZ=              0.0000
 Octapole moment (field-independent basis, Debye-Ang**2):
  XXX=              0.0000  YYY=              0.0000  ZZZ=             -9.0476  XYY=              0.0000
  XXY=              0.0000  XXZ=             -1.6688  XZZ=              0.0000  YZZ=              0.0000
  YYZ=             -0.8590  XYZ=              0.0000
 Hexadecapole moment (field-independent basis, Debye-Ang**3):
 XXXX=            -11.4949 YYYY=            -74.6348 ZZZZ=            -93.0281 XXXY=              0.0000
 XXXZ=              0.0000 YYYX=              0.0000 YYYZ=              0.0000 ZZZX=              0.0000
 ZZZY=              0.0000 XXYY=            -14.2518 XXZZ=            -16.5326 YYZZ=            -27.4996
 XXYZ=              0.0000 YYXZ=              0.0000 ZZXY=              0.0000
 N-N= 1.218630447241D+02 E-N=-9.855274556109D+02  KE= 3.116519874972D+02
 Symmetry A1   KE= 1.953526499768D+02
 Symmetry A2   KE= 6.500163201293D+00
 Symmetry B1   KE= 9.770704516402D+00
 Symmetry B2   KE= 1.000284698026D+02
  Exact polarizability:   7.444   0.000  11.112   0.000   0.000  15.356
 Approx polarizability:   7.049   0.000   9.828   0.000   0.000  14.444
 Calling FoFJK, ICntrl=    100127 FMM=F ISym2X=1 I1Cent= 0 IOpClX= 0 NMat=1 NMatS=1 NMatT=0.
 Full mass-weighted force constant matrix:
 Low frequencies ---   -0.0017    0.0013    0.0014    2.9501    3.8281    4.5384
 Low frequencies ---  637.4479  687.7046  883.4070
 Diagonal vibrational polarizability:
        2.4967073       7.6330788       5.6100743
 Diagonal vibrational hyperpolarizability:
        0.0000000       0.0000000       1.2487494
 Harmonic frequencies (cm**-1), IR intensities (KM/Mole), Raman scattering
 activities (A**4/AMU), depolarization ratios for plane and unpolarized
 incident light, reduced masses (AMU), force constants (mDyne/A),
 and normal coordinates:
                      1                      2                      3
                     A1                     B2                     B1
 Frequencies --    637.4479               687.7046               883.4070
 Red. masses --     17.6744                17.0058                12.7424
 Frc consts  --      4.2314                 4.7386                 5.8590
 IR Inten    --      7.4323                15.5812                72.4029
 Raman Activ --      0.8883                 2.1295                 1.2455
 Depolar (P) --      0.7419                 0.7500                 0.7500
 Depolar (U) --      0.8518                 0.8571                 0.8571
  Atom  AN      X      Y      Z        X      Y      Z        X      Y      Z
     1   6     0.00   0.00  -0.35     0.00  -0.31   0.00     0.93   0.00   0.00
     2   8     0.00   0.00  -0.39     0.00   0.67   0.00    -0.28   0.00   0.00
     3   9     0.00   0.53   0.28     0.00  -0.18   0.44    -0.18   0.00   0.00
     4   9     0.00  -0.53   0.28     0.00  -0.18  -0.44    -0.18   0.00   0.00
                      4                      5                      6
                     A1                     B2                     A1
 Frequencies --   1084.2240              1441.7500              2184.6609
 Red. masses --     17.2485                13.2107                13.1654
 Frc consts  --     11.9465                16.1792                37.0214
 IR Inten    --     63.4345               521.1033               650.1109
 Raman Activ --      4.4835                 0.1558                 6.9418
 Depolar (P) --      0.0966                 0.7500                 0.2636
 Depolar (U) --      0.1762                 0.8571                 0.4172
  Atom  AN      X      Y      Z        X      Y      Z        X      Y      Z
     1   6     0.00   0.00   0.35     0.00   0.91   0.00     0.00   0.00   0.84
     2   8     0.00   0.00   0.54     0.00  -0.08   0.00     0.00   0.00  -0.53
     3   9     0.00   0.42  -0.34     0.00  -0.25   0.14     0.00   0.03  -0.04
     4   9     0.00  -0.42  -0.34     0.00  -0.25  -0.14     0.00  -0.03  -0.04

 -------------------
 - Thermochemistry -
 -------------------
 Temperature   298.150 Kelvin.  Pressure   1.00000 Atm.
 Atom     1 has atomic number  6 and mass  12.00000
 Atom     2 has atomic number  8 and mass  15.99491
 Atom     3 has atomic number  9 and mass  18.99840
 Atom     4 has atomic number  9 and mass  18.99840
 Molecular mass:    65.99172 amu.
 Principal axes and moments of inertia in atomic units:
                           1         2         3
     Eigenvalues --   147.77123 148.16280 295.93403
           X            0.00000   0.00000   1.00000
           Y            1.00000   0.00000   0.00000
           Z            0.00000   1.00000   0.00000
 This molecule is an asymmetric top.
 Rotational symmetry number  2.
 Rotational temperatures (Kelvin)      0.58613     0.58459     0.29268
 Rotational constants (GHZ):          12.21308    12.18080     6.09846
 Zero-point vibrational energy      41386.0 (Joules/Mol)
                                    9.89148 (Kcal/Mol)
 Vibrational temperatures:    917.14   989.45  1271.02  1559.95  2074.35
          (Kelvin)           3143.24
 
 Zero-point correction=                           0.015763 (Hartree/Particle)
 Thermal correction to Energy=                    0.018944
 Thermal correction to Enthalpy=                  0.019889
 Thermal correction to Gibbs Free Energy=        -0.009299
 Sum of electronic and zero-point Energies=           -311.619889
 Sum of electronic and thermal Energies=              -311.616707
 Sum of electronic and thermal Enthalpies=            -311.615763
 Sum of electronic and thermal Free Energies=         -311.644951
 
                     E (Thermal)             CV                S
                      KCal/Mol        Cal/Mol-Kelvin    Cal/Mol-Kelvin
 Total                   11.888              8.682             61.430
 Electronic               0.000              0.000              0.000
 Translational            0.889              2.981             38.479
 Rotational               0.889              2.981             22.009
 Vibrational             10.110              2.721              0.942
                       Q            Log10(Q)             Ln(Q)
 Total Bot       0.189324D+05          4.277205          9.848629
 Total V=0       0.337059D+12         11.527706         26.543523
 Vib (Bot)       0.623645D-07         -7.205062        -16.590269
 Vib (V=0)       0.111029D+01          0.045438          0.104624
 Electronic      0.100000D+01          0.000000          0.000000
 Translational   0.210712D+08          7.323689         16.863418
 Rotational      0.144072D+05          4.158578          9.575481
 ***** Axes restored to original set *****
 -------------------------------------------------------------------
 Center     Atomic                   Forces (Hartrees/Bohr)
 Number     Number              X              Y              Z
 -------------------------------------------------------------------
      1        6           0.000000000    0.000000000    0.000003624
      2        8           0.000000000    0.000000000   -0.000033359
      3        9           0.000000000   -0.000012381    0.000014867
      4        9           0.000000000    0.000012381    0.000014867
 -------------------------------------------------------------------
 Cartesian Forces:  Max     0.000033359 RMS     0.000012499
 FormGI is forming the generalized inverse of G from B-inverse, IUseBI=4.

 GradGradGradGradGradGradGradGradGradGradGradGradGradGradGradGradGradGrad
 Berny optimization.
 Internal  Forces:  Max     0.000033359 RMS     0.000016503
 Search for a local minimum.
 Step number   1 out of a maximum of    2
 All quantities printed in internal units (Hartrees-Bohrs-Radians)
 Second derivative matrix not updated -- analytic derivatives used.
 The second derivative matrix:
                          R1        R2        R3        A1        A2
           R1           1.21825
           R2           0.08696   0.54895
           R3           0.08696   0.06218   0.54895
           A1           0.02733   0.02743  -0.06989   0.21554
           A2           0.02733  -0.06989   0.02743  -0.09341   0.21554
           A3          -0.05466   0.04246   0.04246  -0.12214  -0.12214
           D1           0.00000   0.00000   0.00000   0.00000   0.00000
                          A3        D1
           A3           0.24428
           D1           0.00000   0.14049
 ITU=  0
     Eigenvalues ---    0.14049   0.26604   0.33485   0.52969   0.61566
     Eigenvalues ---    1.24529
 Angle between quadratic step and forces=  30.41 degrees.
 Linear search not attempted -- first point.
 Iteration  1 RMS(Cart)=  0.00002119 RMS(Int)=  0.00000000
 Iteration  2 RMS(Cart)=  0.00000000 RMS(Int)=  0.00000000
 ClnCor:  largest displacement from symmetrization is 3.57D-12 for atom     1.
 Variable       Old X    -DE/DX   Delta X   Delta X   Delta X     New X
                                 (Linear)    (Quad)   (Total)
    R1        2.17995  -0.00003   0.00000  -0.00002  -0.00002   2.17993
    R2        2.43675  -0.00002   0.00000  -0.00003  -0.00003   2.43672
    R3        2.43675  -0.00002   0.00000  -0.00003  -0.00003   2.43672
    A1        2.19680   0.00000   0.00000  -0.00001  -0.00001   2.19679
    A2        2.19680   0.00000   0.00000  -0.00001  -0.00001   2.19679
    A3        1.88958   0.00001   0.00000   0.00003   0.00003   1.88961
    D1        3.14159   0.00000   0.00000   0.00000   0.00000   3.14159
         Item               Value     Threshold  Converged?
 Maximum Force            0.000033     0.000450     YES
 RMS     Force            0.000017     0.000300     YES
 Maximum Displacement     0.000037     0.001800     YES
 RMS     Displacement     0.000021     0.001200     YES
 Predicted change in Energy=-1.069865D-09
 Optimization completed.
    -- Stationary point found.
                           ----------------------------
                           !   Optimized Parameters   !
                           ! (Angstroms and Degrees)  !
 --------------------------                            --------------------------
 ! Name  Definition              Value          Derivative Info.                !
 --------------------------------------------------------------------------------
 ! R1    R(1,2)                  1.1536         -DE/DX =    0.0                 !
 ! R2    R(1,3)                  1.2895         -DE/DX =    0.0                 !
 ! R3    R(1,4)                  1.2895         -DE/DX =    0.0                 !
 ! A1    A(2,1,3)              125.8674         -DE/DX =    0.0                 !
 ! A2    A(2,1,4)              125.8674         -DE/DX =    0.0                 !
 ! A3    A(3,1,4)              108.2651         -DE/DX =    0.0                 !
 ! D1    D(2,1,4,3)            180.0            -DE/DX =    0.0                 !
 --------------------------------------------------------------------------------
 GradGradGradGradGradGradGradGradGradGradGradGradGradGradGradGradGradGrad

 1\1\GINC-C0700A-S1\Freq\RHF\CC-pVDZ\C1F2O1\LE.CHEN\06-Oct-2021\0\\#N G
 eom=AllCheck Guess=TCheck SCRF=Check GenChk RHF/CC-pVDZ Freq\\Title\\0
 ,1\C,0.,0.,0.136582\O,0.,0.,1.290164\F,0.,1.044954,-0.618934\F,0.,-1.0
 44954,-0.618934\\Version=AS64L-G09RevD.01\State=1-A1\HF=-311.6356518\R
 MSD=2.930e-10\RMSF=1.250e-05\ZeroPoint=0.0157631\Thermal=0.0189444\Dip
 ole=0.,0.,-0.4622953\DipoleDeriv=0.8392216,0.,0.,0.,2.2983637,0.,0.,0.
 ,2.6253196,-0.46026,0.,0.,0.,-0.6513476,0.,0.,0.,-1.2435105,-0.1894808
 ,0.,0.,0.,-0.8235081,0.4165873,0.,0.3529343,-0.6909046,-0.1894808,0.,0
 .,0.,-0.8235081,-0.4165873,0.,-0.3529343,-0.6909046\Polar=7.4438875,0.
 ,11.1122354,0.,0.,15.3560097\PolarDeriv=0.,0.,0.,-2.5246328,0.,0.,0.,0
 .,0.,0.,-0.03991,0.,-1.6628517,0.,1.1020797,0.,0.,-4.9256067,0.,0.,0.,
 3.1922487,0.,0.,0.,0.,0.,0.,3.4004562,0.,1.8624077,0.,0.9608947,0.,0.,
 10.3743784,0.,0.9288485,0.,-0.333808,0.,0.,0.2007604,0.,4.3614593,0.,-
 1.6802731,0.9704965,-0.099778,0.,-1.0314872,0.,2.0172864,-2.7243859,0.
 ,-0.9288485,0.,-0.333808,0.,0.,-0.2007604,0.,-4.3614593,0.,-1.6802731,
 -0.9704965,-0.099778,0.,-1.0314872,0.,-2.0172864,-2.7243859\HyperPolar
 =0.,0.,0.,0.,-4.7443671,0.,4.8604957,0.,0.,-7.2823888\PG=C02V [C2(C1O1
 ),SGV(F2)]\NImag=0\\0.28747352,0.,0.72084413,0.,0.,1.46884723,-0.11376
 721,0.,0.,0.04503205,0.,-0.12583398,0.,0.,0.13003836,0.,0.,-1.06181153
 ,0.,0.,1.21825318,-0.08685315,0.,0.,0.03436758,0.,0.,0.02624592,0.,-0.
 29750507,0.13512542,0.,-0.00210219,0.05075871,0.,0.40706830,0.,0.14564
 363,-0.20351785,0.,0.07328970,-0.07822082,0.,-0.20240873,0.26047263,-0
 .08685315,0.,0.,0.03436758,0.,0.,0.02623966,0.,0.,0.02624592,0.,-0.297
 50507,-0.13512542,0.,-0.00210219,-0.05075871,0.,-0.10746103,-0.0165246
 0,0.,0.40706830,0.,-0.14564363,-0.20351785,0.,-0.07328970,-0.07822082,
 0.,0.01652460,0.02126605,0.,0.20240873,0.26047263\\0.,0.,-0.00000362,0
 .,0.,0.00003336,0.,0.00001238,-0.00001487,0.,-0.00001238,-0.00001487\\
 \@


 The mind is not a vessel to be filled but a fire to be kindled.
                                  -- Plutarch
 Job cpu time:       0 days  0 hours  0 minutes  3.3 seconds.
 File lengths (MBytes):  RWF=      5 Int=      0 D2E=      0 Chk=      1 Scr=      1
 Normal termination of Gaussian 09 at Wed Oct  6 23:24:31 2021.
