 Entering Gaussian System, Link 0=g09
 Initial command:
 /apps/gaussian/g09/amd-sse4a/l1.exe "/blue/chm6586/le.chen/hw2/Gau-119611.inp" -scrdir="/blue/chm6586/le.chen/hw2/"
 Entering Link 1 = /apps/gaussian/g09/amd-sse4a/l1.exe PID=    119612.
  
 Copyright (c) 1988,1990,1992,1993,1995,1998,2003,2009,2013,
            Gaussian, Inc.  All Rights Reserved.
  
 This is part of the Gaussian(R) 09 program.  It is based on
 the Gaussian(R) 03 system (copyright 2003, Gaussian, Inc.),
 the Gaussian(R) 98 system (copyright 1998, Gaussian, Inc.),
 the Gaussian(R) 94 system (copyright 1995, Gaussian, Inc.),
 the Gaussian 92(TM) system (copyright 1992, Gaussian, Inc.),
 the Gaussian 90(TM) system (copyright 1990, Gaussian, Inc.),
 the Gaussian 88(TM) system (copyright 1988, Gaussian, Inc.),
 the Gaussian 86(TM) system (copyright 1986, Carnegie Mellon
 University), and the Gaussian 82(TM) system (copyright 1983,
 Carnegie Mellon University). Gaussian is a federally registered
 trademark of Gaussian, Inc.
  
 This software contains proprietary and confidential information,
 including trade secrets, belonging to Gaussian, Inc.
  
 This software is provided under written license and may be
 used, copied, transmitted, or stored only in accord with that
 written license.
  
 The following legend is applicable only to US Government
 contracts under FAR:
  
                    RESTRICTED RIGHTS LEGEND
  
 Use, reproduction and disclosure by the US Government is
 subject to restrictions as set forth in subparagraphs (a)
 and (c) of the Commercial Computer Software - Restricted
 Rights clause in FAR 52.227-19.
  
 Gaussian, Inc.
 340 Quinnipiac St., Bldg. 40, Wallingford CT 06492
  
  
 ---------------------------------------------------------------
 Warning -- This program may not be used in any manner that
 competes with the business of Gaussian, Inc. or will provide
 assistance to any competitor of Gaussian, Inc.  The licensee
 of this program is prohibited from giving any competitor of
 Gaussian, Inc. access to this program.  By using this program,
 the user acknowledges that Gaussian, Inc. is engaged in the
 business of creating and licensing software in the field of
 computational chemistry and represents and warrants to the
 licensee that it is not a competitor of Gaussian, Inc. and that
 it will not use this program in any manner prohibited above.
 ---------------------------------------------------------------
  

 Cite this work as:
 Gaussian 09, Revision D.01,
 M. J. Frisch, G. W. Trucks, H. B. Schlegel, G. E. Scuseria, 
 M. A. Robb, J. R. Cheeseman, G. Scalmani, V. Barone, B. Mennucci, 
 G. A. Petersson, H. Nakatsuji, M. Caricato, X. Li, H. P. Hratchian, 
 A. F. Izmaylov, J. Bloino, G. Zheng, J. L. Sonnenberg, M. Hada, 
 M. Ehara, K. Toyota, R. Fukuda, J. Hasegawa, M. Ishida, T. Nakajima, 
 Y. Honda, O. Kitao, H. Nakai, T. Vreven, J. A. Montgomery, Jr., 
 J. E. Peralta, F. Ogliaro, M. Bearpark, J. J. Heyd, E. Brothers, 
 K. N. Kudin, V. N. Staroverov, T. Keith, R. Kobayashi, J. Normand, 
 K. Raghavachari, A. Rendell, J. C. Burant, S. S. Iyengar, J. Tomasi, 
 M. Cossi, N. Rega, J. M. Millam, M. Klene, J. E. Knox, J. B. Cross, 
 V. Bakken, C. Adamo, J. Jaramillo, R. Gomperts, R. E. Stratmann, 
 O. Yazyev, A. J. Austin, R. Cammi, C. Pomelli, J. W. Ochterski, 
 R. L. Martin, K. Morokuma, V. G. Zakrzewski, G. A. Voth, 
 P. Salvador, J. J. Dannenberg, S. Dapprich, A. D. Daniels, 
 O. Farkas, J. B. Foresman, J. V. Ortiz, J. Cioslowski, 
 and D. J. Fox, Gaussian, Inc., Wallingford CT, 2013.
 
 ******************************************
 Gaussian 09:  AS64L-G09RevD.01 24-Apr-2013
                19-Sep-2021 
 ******************************************
 ------------------------------
 #n HF/cc-pvtz Opt=(MaxCyc=500)
 ------------------------------
 1/6=500,18=20,19=15,38=1/1,3;
 2/9=110,12=2,17=6,18=5,40=1/2;
 3/5=16,6=1,11=9,16=1,25=1,30=1,71=1/1,2,3;
 4//1;
 5/5=2,38=5/2;
 6/7=2,8=2,9=2,10=2,28=1/1;
 7//1,2,3,16;
 1/6=500,18=20,19=15/3(2);
 2/9=110/2;
 99//99;
 2/9=110/2;
 3/5=16,6=1,11=9,16=1,25=1,30=1,71=1/1,2,3;
 4/5=5,16=3,69=1/1;
 5/5=2,38=5/2;
 7//1,2,3,16;
 1/6=500,18=20,19=15/3(-5);
 2/9=110/2;
 6/7=2,8=2,9=2,10=2,19=2,28=1/1;
 99/9=1/99;
 -----
 Title
 -----
 Symbolic Z-matrix:
 Charge =  0 Multiplicity = 1
 C
 O                    1    B1
 F                    1    B2       2    A2
 F                    1    B3       2    A3       3    D3       0
       Variables:
  B1                    1.21995                  
  B2                    1.33563                  
  A2                  119.84873                  
  B3                    1.33563                  
  A3                  119.84873                  
  D3                  180.                       
 

 GradGradGradGradGradGradGradGradGradGradGradGradGradGradGradGradGradGrad
 Berny optimization.
 Initialization pass.
                           ----------------------------
                           !    Initial Parameters    !
                           ! (Angstroms and Degrees)  !
 --------------------------                            --------------------------
 ! Name  Definition              Value          Derivative Info.                !
 --------------------------------------------------------------------------------
 ! R1    R(1,2)                  1.2199         estimate D2E/DX2                !
 ! R2    R(1,3)                  1.3356         estimate D2E/DX2                !
 ! R3    R(1,4)                  1.3356         estimate D2E/DX2                !
 ! A1    A(2,1,3)              119.8487         estimate D2E/DX2                !
 ! A2    A(2,1,4)              119.8487         estimate D2E/DX2                !
 ! A3    A(3,1,4)              120.3025         estimate D2E/DX2                !
 ! D1    D(2,1,4,3)            180.0            estimate D2E/DX2                !
 --------------------------------------------------------------------------------
 Trust Radius=3.00D-01 FncErr=1.00D-07 GrdErr=1.00D-07
 Number of steps in this run=    100 maximum allowed number of steps=    100.
 GradGradGradGradGradGradGradGradGradGradGradGradGradGradGradGradGradGrad

                          Input orientation:                          
 ---------------------------------------------------------------------
 Center     Atomic      Atomic             Coordinates (Angstroms)
 Number     Number       Type             X           Y           Z
 ---------------------------------------------------------------------
      1          6           0        0.000000    0.000000    0.000000
      2          8           0        0.000000    0.000000    1.219950
      3          9           0        1.158449    0.000000   -0.664759
      4          9           0       -1.158449    0.000000   -0.664759
 ---------------------------------------------------------------------
                    Distance matrix (angstroms):
                    1          2          3          4
     1  C    0.000000
     2  O    1.219950   0.000000
     3  F    1.335630   2.212268   0.000000
     4  F    1.335630   2.212268   2.316897   0.000000
 Stoichiometry    CF2O
 Framework group  C2V[C2(CO),SGV(F2)]
 Deg. of freedom     3
 Full point group                 C2V     NOp   4
 Largest Abelian subgroup         C2V     NOp   4
 Largest concise Abelian subgroup C2      NOp   2
                         Standard orientation:                         
 ---------------------------------------------------------------------
 Center     Atomic      Atomic             Coordinates (Angstroms)
 Number     Number       Type             X           Y           Z
 ---------------------------------------------------------------------
      1          6           0        0.000000    0.000000    0.068939
      2          8           0        0.000000    0.000000    1.288889
      3          9           0        0.000000    1.158449   -0.595819
      4          9           0        0.000000   -1.158449   -0.595819
 ---------------------------------------------------------------------
 Rotational constants (GHZ):     12.6043607      9.9109789      5.5482864
 Standard basis: CC-pVTZ (5D, 7F)
 There are    56 symmetry adapted cartesian basis functions of A1  symmetry.
 There are    17 symmetry adapted cartesian basis functions of A2  symmetry.
 There are    27 symmetry adapted cartesian basis functions of B1  symmetry.
 There are    40 symmetry adapted cartesian basis functions of B2  symmetry.
 There are    46 symmetry adapted basis functions of A1  symmetry.
 There are    16 symmetry adapted basis functions of A2  symmetry.
 There are    24 symmetry adapted basis functions of B1  symmetry.
 There are    34 symmetry adapted basis functions of B2  symmetry.
   120 basis functions,   208 primitive gaussians,   140 cartesian basis functions
    16 alpha electrons       16 beta electrons
       nuclear repulsion energy       116.5558877565 Hartrees.
 NAtoms=    4 NActive=    4 NUniq=    3 SFac= 1.78D+00 NAtFMM=   60 NAOKFM=F Big=F
 Integral buffers will be    131072 words long.
 Raffenetti 1 integral format.
 Two-electron integral symmetry is turned on.
 One-electron integrals computed using PRISM.
 NBasis=   120 RedAO= T EigKep=  7.63D-03  NBF=    46    16    24    34
 NBsUse=   120 1.00D-06 EigRej= -1.00D+00 NBFU=    46    16    24    34
 ExpMin= 1.21D-01 ExpMax= 1.95D+04 ExpMxC= 6.65D+02 IAcc=1 IRadAn=         1 AccDes= 0.00D+00
 Harris functional with IExCor=  205 and IRadAn=       1 diagonalized for initial guess.
 HarFok:  IExCor=  205 AccDes= 0.00D+00 IRadAn=         1 IDoV= 1 UseB2=F ITyADJ=14
 ICtDFT=  3500011 ScaDFX=  1.000000  1.000000  1.000000  1.000000
 FoFCou: FMM=F IPFlag=           0 FMFlag=      100000 FMFlg1=           0
         NFxFlg=           0 DoJE=T BraDBF=F KetDBF=T FulRan=T
         wScrn=  0.000000 ICntrl=     500 IOpCl=  0 I1Cent=   200000004 NGrid=           0
         NMat0=    1 NMatS0=      1 NMatT0=    0 NMatD0=    1 NMtDS0=    0 NMtDT0=    0
 Petite list used in FoFCou.
 Initial guess orbital symmetries:
       Occupied  (B2) (A1) (A1) (A1) (A1) (B2) (A1) (A1) (B2) (A1)
                 (B1) (A1) (A2) (B2) (B1) (B2)
       Virtual   (B1) (A1) (A1) (B2) (A1) (B1) (B2) (A1) (A1) (B2)
                 (B1) (A1) (A2) (B2) (B1) (A2) (A1) (B2) (A1) (B1)
                 (A1) (B2) (A1) (A2) (A1) (B2) (A1) (B1) (B1) (A2)
                 (B2) (B2) (A1) (A1) (B1) (B2) (B1) (A1) (A2) (A1)
                 (B2) (B2) (A1) (B1) (A2) (A1) (B1) (A1) (B2) (A1)
                 (A2) (B1) (B2) (A1) (B2) (B1) (B2) (A1) (A2) (A1)
                 (B1) (B2) (B2) (B1) (A1) (A2) (A1) (B2) (B1) (A1)
                 (B2) (A2) (A1) (B2) (B1) (A1) (A2) (B2) (B1) (A1)
                 (A2) (A1) (B1) (A1) (B2) (A1) (B1) (A2) (B2) (B2)
                 (A2) (A1) (B2) (A1) (B1) (B1) (A2) (A1) (B2) (B2)
                 (A1) (B2) (A1) (A1)
 The electronic state of the initial guess is 1-A1.
 Keep R1 ints in memory in symmetry-blocked form, NReq=33148318.
 Requested convergence on RMS density matrix=1.00D-08 within 128 cycles.
 Requested convergence on MAX density matrix=1.00D-06.
 Requested convergence on             energy=1.00D-06.
 No special actions if energy rises.
 SCF Done:  E(RHF) =  -311.714395784     A.U. after   12 cycles
            NFock= 12  Conv=0.40D-08     -V/T= 2.0023

 **********************************************************************

            Population analysis using the SCF density.

 **********************************************************************

 Orbital symmetries:
       Occupied  (B2) (A1) (A1) (A1) (A1) (B2) (A1) (A1) (B2) (B1)
                 (A1) (A2) (B2) (A1) (B1) (B2)
       Virtual   (B1) (A1) (A1) (B2) (B1) (A1) (B2) (A1) (A1) (A1)
                 (B2) (B1) (B2) (A2) (A2) (B1) (A1) (B2) (A1) (B1)
                 (A1) (B2) (A1) (A2) (A1) (B2) (A1) (B1) (B1) (A2)
                 (B2) (B2) (A1) (A1) (B1) (B2) (B1) (A1) (A2) (A1)
                 (B2) (B2) (A1) (B1) (A2) (A1) (B1) (A1) (B2) (A2)
                 (A1) (B1) (B2) (A1) (B2) (B1) (B2) (A1) (A2) (A1)
                 (B1) (B2) (B2) (B1) (A1) (A2) (A1) (B2) (B1) (A1)
                 (B2) (A2) (A1) (B2) (B1) (A2) (A1) (B2) (B1) (A2)
                 (A1) (B1) (A1) (A1) (B2) (A1) (B1) (A2) (B2) (B2)
                 (A1) (A2) (B2) (A1) (B1) (B1) (A2) (A1) (B2) (B2)
                 (A1) (B2) (A1) (A1)
 The electronic state is 1-A1.
 Alpha  occ. eigenvalues --  -26.40238 -26.40236 -20.61027 -11.54518  -1.74518
 Alpha  occ. eigenvalues --   -1.69346  -1.43620  -0.95032  -0.86486  -0.80839
 Alpha  occ. eigenvalues --   -0.79591  -0.73646  -0.72322  -0.68232  -0.55155
 Alpha  occ. eigenvalues --   -0.53952
 Alpha virt. eigenvalues --    0.13725   0.19583   0.33552   0.36036   0.38728
 Alpha virt. eigenvalues --    0.43076   0.51845   0.66299   0.73330   0.80511
 Alpha virt. eigenvalues --    0.81560   0.82974   0.87731   0.89365   0.95585
 Alpha virt. eigenvalues --    0.96824   0.99229   1.04105   1.08034   1.08253
 Alpha virt. eigenvalues --    1.34471   1.40334   1.60613   1.78951   1.82044
 Alpha virt. eigenvalues --    1.84198   1.92415   1.99983   2.07624   2.12848
 Alpha virt. eigenvalues --    2.15234   2.18197   2.30687   2.37594   2.42319
 Alpha virt. eigenvalues --    2.55409   2.57123   2.61420   2.62943   2.78765
 Alpha virt. eigenvalues --    2.81974   2.92865   3.13446   3.16022   3.20159
 Alpha virt. eigenvalues --    3.39365   3.51198   3.54274   3.55136   3.61400
 Alpha virt. eigenvalues --    3.61719   3.62900   3.72106   3.89430   3.98566
 Alpha virt. eigenvalues --    4.43672   4.56336   4.88394   5.14260   5.15877
 Alpha virt. eigenvalues --    5.20408   5.31256   5.57462   5.59034   5.88461
 Alpha virt. eigenvalues --    5.88727   5.99631   6.42793   6.44708   6.48617
 Alpha virt. eigenvalues --    6.59287   6.79100   6.83531   7.21706   7.22661
 Alpha virt. eigenvalues --    7.30027   7.30580   7.30903   7.32052   7.33287
 Alpha virt. eigenvalues --    7.35196   7.47636   7.48207   7.54222   7.54385
 Alpha virt. eigenvalues --    7.62657   7.71041   7.76349   7.81476   8.48824
 Alpha virt. eigenvalues --    8.80682   8.81482   8.87478   8.88118   8.88936
 Alpha virt. eigenvalues --    9.27146   9.29175   9.42409   9.49101   9.60474
 Alpha virt. eigenvalues --   10.12270  11.78018  11.98399  12.68985
          Condensed to atoms (all electrons):
               1          2          3          4
     1  C    3.850802   0.766833   0.366298   0.366298
     2  O    0.766833   7.679270  -0.060938  -0.060938
     3  F    0.366298  -0.060938   8.883778  -0.026367
     4  F    0.366298  -0.060938  -0.026367   8.883778
 Mulliken charges:
               1
     1  C    0.649769
     2  O   -0.324227
     3  F   -0.162771
     4  F   -0.162771
 Sum of Mulliken charges =   0.00000
 Mulliken charges with hydrogens summed into heavy atoms:
               1
     1  C    0.649769
     2  O   -0.324227
     3  F   -0.162771
     4  F   -0.162771
 Electronic spatial extent (au):  <R**2>=            203.8389
 Charge=              0.0000 electrons
 Dipole moment (field-independent basis, Debye):
    X=              0.0000    Y=              0.0000    Z=             -1.7171  Tot=              1.7171
 Quadrupole moment (field-independent basis, Debye-Ang):
   XX=            -18.7131   YY=            -21.3658   ZZ=            -23.4014
   XY=              0.0000   XZ=              0.0000   YZ=              0.0000
 Traceless Quadrupole moment (field-independent basis, Debye-Ang):
   XX=              2.4470   YY=             -0.2057   ZZ=             -2.2413
   XY=              0.0000   XZ=              0.0000   YZ=              0.0000
 Octapole moment (field-independent basis, Debye-Ang**2):
  XXX=              0.0000  YYY=              0.0000  ZZZ=             -8.9828  XYY=              0.0000
  XXY=              0.0000  XXZ=             -1.8738  XZZ=              0.0000  YZZ=              0.0000
  YYZ=             -1.3014  XYZ=              0.0000
 Hexadecapole moment (field-independent basis, Debye-Ang**3):
 XXXX=            -12.6497 YYYY=            -88.7726 ZZZZ=            -93.0139 XXXY=              0.0000
 XXXZ=              0.0000 YYYX=              0.0000 YYYZ=              0.0000 ZZZX=              0.0000
 ZZZY=              0.0000 XXYY=            -17.0774 XXZZ=            -16.8839 YYZZ=            -30.3241
 XXYZ=              0.0000 YYXZ=              0.0000 ZZXY=              0.0000
 N-N= 1.165558877565D+02 E-N=-9.745535721833D+02  KE= 3.109881839068D+02
 Symmetry A1   KE= 1.950998889345D+02
 Symmetry A2   KE= 6.454563034299D+00
 Symmetry B1   KE= 9.807318788532D+00
 Symmetry B2   KE= 9.962641314948D+01
 Calling FoFJK, ICntrl=      2127 FMM=F ISym2X=1 I1Cent= 0 IOpClX= 0 NMat=1 NMatS=1 NMatT=0.
 ***** Axes restored to original set *****
 -------------------------------------------------------------------
 Center     Atomic                   Forces (Hartrees/Bohr)
 Number     Number              X              Y              Z
 -------------------------------------------------------------------
      1        6           0.000000000    0.000000000    0.115648893
      2        8           0.000000000    0.000000000   -0.122792716
      3        9          -0.074620719    0.000000000    0.003571911
      4        9           0.074620719    0.000000000    0.003571911
 -------------------------------------------------------------------
 Cartesian Forces:  Max     0.122792716 RMS     0.057456315

 GradGradGradGradGradGradGradGradGradGradGradGradGradGradGradGradGradGrad
 Berny optimization.
 FormGI is forming the generalized inverse of G from B-inverse, IUseBI=4.
 Internal  Forces:  Max     0.122792716 RMS     0.064191584
 Search for a local minimum.
 Step number   1 out of a maximum of  100
 All quantities printed in internal units (Hartrees-Bohrs-Radians)
 Mixed Optimization -- RFO/linear search
 Second derivative matrix not updated -- first step.
 The second derivative matrix:
                          R1        R2        R3        A1        A2
           R1           0.95405
           R2           0.00000   0.58196
           R3           0.00000   0.00000   0.58196
           A1           0.00000   0.00000   0.00000   0.25000
           A2           0.00000   0.00000   0.00000   0.00000   0.25000
           A3           0.00000   0.00000   0.00000   0.00000   0.00000
           D1           0.00000   0.00000   0.00000   0.00000   0.00000
                          A3        D1
           A3           0.25000
           D1           0.00000   0.02279
 ITU=  0
     Eigenvalues ---    0.02279   0.25000   0.25000   0.58196   0.58196
     Eigenvalues ---    0.95405
 RFO step:  Lambda=-4.58064552D-02 EMin= 2.27862172D-02
 Linear search not attempted -- first point.
 Maximum step size (   0.300) exceeded in Quadratic search.
    -- Step size scaled by   0.980
 Iteration  1 RMS(Cart)=  0.12178744 RMS(Int)=  0.00720031
 Iteration  2 RMS(Cart)=  0.00587643 RMS(Int)=  0.00001897
 Iteration  3 RMS(Cart)=  0.00002302 RMS(Int)=  0.00000000
 Iteration  4 RMS(Cart)=  0.00000000 RMS(Int)=  0.00000000
 ClnCor:  largest displacement from symmetrization is 2.62D-12 for atom     1.
 Variable       Old X    -DE/DX   Delta X   Delta X   Delta X     New X
                                 (Linear)    (Quad)   (Total)
    R1        2.30537  -0.12279   0.00000  -0.12032  -0.12032   2.18506
    R2        2.52397  -0.06650   0.00000  -0.10378  -0.10378   2.42019
    R3        2.52397  -0.06650   0.00000  -0.10378  -0.10378   2.42019
    A1        2.09175   0.02864   0.00000   0.09485   0.09485   2.18661
    A2        2.09175   0.02864   0.00000   0.09485   0.09485   2.18661
    A3        2.09968  -0.05728   0.00000  -0.18971  -0.18971   1.90997
    D1        3.14159   0.00000   0.00000   0.00000   0.00000   3.14159
         Item               Value     Threshold  Converged?
 Maximum Force            0.122793     0.000450     NO 
 RMS     Force            0.064192     0.000300     NO 
 Maximum Displacement     0.213535     0.001800     NO 
 RMS     Displacement     0.122526     0.001200     NO 
 Predicted change in Energy=-2.495507D-02
 GradGradGradGradGradGradGradGradGradGradGradGradGradGradGradGradGradGrad

                          Input orientation:                          
 ---------------------------------------------------------------------
 Center     Atomic      Atomic             Coordinates (Angstroms)
 Number     Number       Type             X           Y           Z
 ---------------------------------------------------------------------
      1          6           0        0.000000    0.000000    0.053421
      2          8           0        0.000000    0.000000    1.209703
      3          9           0        1.045451    0.000000   -0.686346
      4          9           0       -1.045451    0.000000   -0.686346
 ---------------------------------------------------------------------
                    Distance matrix (angstroms):
                    1          2          3          4
     1  C    0.000000
     2  O    1.156282   0.000000
     3  F    1.280712   2.165172   0.000000
     4  F    1.280712   2.165172   2.090902   0.000000
 Stoichiometry    CF2O
 Framework group  C2V[C2(CO),SGV(F2)]
 Deg. of freedom     3
 Full point group                 C2V     NOp   4
 Largest Abelian subgroup         C2V     NOp   4
 Largest concise Abelian subgroup C2      NOp   2
                         Standard orientation:                         
 ---------------------------------------------------------------------
 Center     Atomic      Atomic             Coordinates (Angstroms)
 Number     Number       Type             X           Y           Z
 ---------------------------------------------------------------------
      1          6           0        0.000000    0.000000    0.127049
      2          8           0        0.000000    0.000000    1.283330
      3          9           0        0.000000    1.045451   -0.612719
      4          9           0        0.000000   -1.045451   -0.612719
 ---------------------------------------------------------------------
 Rotational constants (GHZ):     12.3933314     12.1692230      6.1401274
 Standard basis: CC-pVTZ (5D, 7F)
 There are    56 symmetry adapted cartesian basis functions of A1  symmetry.
 There are    17 symmetry adapted cartesian basis functions of A2  symmetry.
 There are    27 symmetry adapted cartesian basis functions of B1  symmetry.
 There are    40 symmetry adapted cartesian basis functions of B2  symmetry.
 There are    46 symmetry adapted basis functions of A1  symmetry.
 There are    16 symmetry adapted basis functions of A2  symmetry.
 There are    24 symmetry adapted basis functions of B1  symmetry.
 There are    34 symmetry adapted basis functions of B2  symmetry.
   120 basis functions,   208 primitive gaussians,   140 cartesian basis functions
    16 alpha electrons       16 beta electrons
       nuclear repulsion energy       122.2860580866 Hartrees.
 NAtoms=    4 NActive=    4 NUniq=    3 SFac= 1.78D+00 NAtFMM=   60 NAOKFM=F Big=F
 Integral buffers will be    131072 words long.
 Raffenetti 1 integral format.
 Two-electron integral symmetry is turned on.
 One-electron integrals computed using PRISM.
 NBasis=   120 RedAO= T EigKep=  6.50D-03  NBF=    46    16    24    34
 NBsUse=   120 1.00D-06 EigRej= -1.00D+00 NBFU=    46    16    24    34
 Initial guess from the checkpoint file:  "/blue/chm6586/le.chen/hw2/Gau-119612.chk"
 B after Tr=     0.000000    0.000000    0.000000
         Rot=    1.000000    0.000000    0.000000    0.000000 Ang=   0.00 deg.
 Initial guess orbital symmetries:
       Occupied  (B2) (A1) (A1) (A1) (A1) (B2) (A1) (A1) (B2) (B1)
                 (A1) (A2) (B2) (A1) (B1) (B2)
       Virtual   (A1) (A1) (A1) (A1) (A1) (A1) (A1) (A1) (A1) (A1)
                 (A1) (A1) (A1) (A1) (A1) (A1) (A1) (A1) (A1) (A1)
                 (A1) (A1) (A1) (A1) (A1) (A1) (A1) (A1) (A1) (A1)
                 (A1) (A1) (A1) (A1) (A1) (A1) (A1) (A1) (A2) (A2)
                 (A2) (A2) (A2) (A2) (A2) (A2) (A2) (A2) (A2) (A2)
                 (A2) (A2) (A2) (B1) (B1) (B1) (B1) (B1) (B1) (B1)
                 (B1) (B1) (B1) (B1) (B1) (B1) (B1) (B1) (B1) (B1)
                 (B1) (B1) (B1) (B1) (B1) (B2) (B2) (B2) (B2) (B2)
                 (B2) (B2) (B2) (B2) (B2) (B2) (B2) (B2) (B2) (B2)
                 (B2) (B2) (B2) (B2) (B2) (B2) (B2) (B2) (B2) (B2)
                 (B2) (B2) (B2) (B2)
 ExpMin= 1.21D-01 ExpMax= 1.95D+04 ExpMxC= 6.65D+02 IAcc=1 IRadAn=         1 AccDes= 0.00D+00
 Harris functional with IExCor=  205 and IRadAn=       1 diagonalized for initial guess.
 HarFok:  IExCor=  205 AccDes= 0.00D+00 IRadAn=         1 IDoV= 1 UseB2=F ITyADJ=14
 ICtDFT=  3500011 ScaDFX=  1.000000  1.000000  1.000000  1.000000
 FoFCou: FMM=F IPFlag=           0 FMFlag=      100000 FMFlg1=           0
         NFxFlg=           0 DoJE=T BraDBF=F KetDBF=T FulRan=T
         wScrn=  0.000000 ICntrl=     500 IOpCl=  0 I1Cent=   200000004 NGrid=           0
         NMat0=    1 NMatS0=      1 NMatT0=    0 NMatD0=    1 NMtDS0=    0 NMtDT0=    0
 Petite list used in FoFCou.
 Keep R1 ints in memory in symmetry-blocked form, NReq=33148318.
 Requested convergence on RMS density matrix=1.00D-08 within 128 cycles.
 Requested convergence on MAX density matrix=1.00D-06.
 Requested convergence on             energy=1.00D-06.
 No special actions if energy rises.
 SCF Done:  E(RHF) =  -311.740066406     A.U. after   11 cycles
            NFock= 11  Conv=0.30D-08     -V/T= 2.0004
 Calling FoFJK, ICntrl=      2127 FMM=F ISym2X=1 I1Cent= 0 IOpClX= 0 NMat=1 NMatS=1 NMatT=0.
 ***** Axes restored to original set *****
 -------------------------------------------------------------------
 Center     Atomic                   Forces (Hartrees/Bohr)
 Number     Number              X              Y              Z
 -------------------------------------------------------------------
      1        6           0.000000000    0.000000000    0.015074279
      2        8           0.000000000    0.000000000   -0.008702549
      3        9          -0.001733445    0.000000000   -0.003185865
      4        9           0.001733445    0.000000000   -0.003185865
 -------------------------------------------------------------------
 Cartesian Forces:  Max     0.015074279 RMS     0.005238300

 GradGradGradGradGradGradGradGradGradGradGradGradGradGradGradGradGradGrad
 Berny optimization.
 Using GEDIIS/GDIIS optimizer.
 FormGI is forming the generalized inverse of G from B-inverse, IUseBI=4.
 Internal  Forces:  Max     0.008702549 RMS     0.004255369
 Search for a local minimum.
 Step number   2 out of a maximum of  100
 All quantities printed in internal units (Hartrees-Bohrs-Radians)
 Mixed Optimization -- RFO/linear search
 Update second derivatives using D2CorX and points    1    2
 DE= -2.57D-02 DEPred=-2.50D-02 R= 1.03D+00
 TightC=F SS=  1.41D+00  RLast= 3.00D-01 DXNew= 5.0454D-01 9.0000D-01
 Trust test= 1.03D+00 RLast= 3.00D-01 DXMaxT set to 5.05D-01
 The second derivative matrix:
                          R1        R2        R3        A1        A2
           R1           0.93133
           R2           0.00666   0.59638
           R3           0.00666   0.01442   0.59638
           A1          -0.00115  -0.00480  -0.00480   0.25156
           A2          -0.00115  -0.00480  -0.00480   0.00156   0.25156
           A3           0.00230   0.00961   0.00961  -0.00311  -0.00311
           D1           0.00000   0.00000   0.00000   0.00000   0.00000
                          A3        D1
           A3           0.25622
           D1           0.00000   0.02279
 ITU=  1  0
 Use linear search instead of GDIIS.
     Eigenvalues ---    0.02279   0.25000   0.25854   0.58196   0.61131
     Eigenvalues ---    0.93162
 RFO step:  Lambda=-9.62628418D-05 EMin= 2.27862172D-02
 Quartic linear search produced a step of  0.04752.
 Iteration  1 RMS(Cart)=  0.00812343 RMS(Int)=  0.00005066
 Iteration  2 RMS(Cart)=  0.00004927 RMS(Int)=  0.00000000
 Iteration  3 RMS(Cart)=  0.00000000 RMS(Int)=  0.00000000
 ClnCor:  largest displacement from symmetrization is 4.09D-11 for atom     1.
 Variable       Old X    -DE/DX   Delta X   Delta X   Delta X     New X
                                 (Linear)    (Quad)   (Total)
    R1        2.18506  -0.00870  -0.00572  -0.00273  -0.00845   2.17661
    R2        2.42019   0.00043  -0.00493   0.00727   0.00234   2.42254
    R3        2.42019   0.00043  -0.00493   0.00727   0.00234   2.42254
    A1        2.18661   0.00291   0.00451   0.00429   0.00880   2.19541
    A2        2.18661   0.00291   0.00451   0.00429   0.00880   2.19541
    A3        1.90997  -0.00581  -0.00901  -0.00858  -0.01759   1.89237
    D1        3.14159   0.00000   0.00000   0.00000   0.00000   3.14159
         Item               Value     Threshold  Converged?
 Maximum Force            0.008703     0.000450     NO 
 RMS     Force            0.004255     0.000300     NO 
 Maximum Displacement     0.011459     0.001800     NO 
 RMS     Displacement     0.008146     0.001200     NO 
 Predicted change in Energy=-1.330276D-04
 GradGradGradGradGradGradGradGradGradGradGradGradGradGradGradGradGradGrad

                          Input orientation:                          
 ---------------------------------------------------------------------
 Center     Atomic      Atomic             Coordinates (Angstroms)
 Number     Number       Type             X           Y           Z
 ---------------------------------------------------------------------
      1          6           0        0.000000    0.000000    0.059485
      2          8           0        0.000000    0.000000    1.211298
      3          9           0        1.039908    0.000000   -0.690175
      4          9           0       -1.039908    0.000000   -0.690175
 ---------------------------------------------------------------------
                    Distance matrix (angstroms):
                    1          2          3          4
     1  C    0.000000
     2  O    1.151813   0.000000
     3  F    1.281952   2.167259   0.000000
     4  F    1.281952   2.167259   2.079817   0.000000
 Stoichiometry    CF2O
 Framework group  C2V[C2(CO),SGV(F2)]
 Deg. of freedom     3
 Full point group                 C2V     NOp   4
 Largest Abelian subgroup         C2V     NOp   4
 Largest concise Abelian subgroup C2      NOp   2
                         Standard orientation:                         
 ---------------------------------------------------------------------
 Center     Atomic      Atomic             Coordinates (Angstroms)
 Number     Number       Type             X           Y           Z
 ---------------------------------------------------------------------
      1          6           0        0.000000    0.000000    0.133731
      2          8           0        0.000000    0.000000    1.285544
      3          9           0        0.000000    1.039908   -0.615930
      4          9           0        0.000000   -1.039908   -0.615930
 ---------------------------------------------------------------------
 Rotational constants (GHZ):     12.3143578     12.2992872      6.1534089
 Standard basis: CC-pVTZ (5D, 7F)
 There are    56 symmetry adapted cartesian basis functions of A1  symmetry.
 There are    17 symmetry adapted cartesian basis functions of A2  symmetry.
 There are    27 symmetry adapted cartesian basis functions of B1  symmetry.
 There are    40 symmetry adapted cartesian basis functions of B2  symmetry.
 There are    46 symmetry adapted basis functions of A1  symmetry.
 There are    16 symmetry adapted basis functions of A2  symmetry.
 There are    24 symmetry adapted basis functions of B1  symmetry.
 There are    34 symmetry adapted basis functions of B2  symmetry.
   120 basis functions,   208 primitive gaussians,   140 cartesian basis functions
    16 alpha electrons       16 beta electrons
       nuclear repulsion energy       122.4035061192 Hartrees.
 NAtoms=    4 NActive=    4 NUniq=    3 SFac= 1.78D+00 NAtFMM=   60 NAOKFM=F Big=F
 Integral buffers will be    131072 words long.
 Raffenetti 1 integral format.
 Two-electron integral symmetry is turned on.
 One-electron integrals computed using PRISM.
 NBasis=   120 RedAO= T EigKep=  6.43D-03  NBF=    46    16    24    34
 NBsUse=   120 1.00D-06 EigRej= -1.00D+00 NBFU=    46    16    24    34
 Initial guess from the checkpoint file:  "/blue/chm6586/le.chen/hw2/Gau-119612.chk"
 B after Tr=     0.000000    0.000000    0.000000
         Rot=    1.000000    0.000000    0.000000    0.000000 Ang=   0.00 deg.
 Initial guess orbital symmetries:
       Occupied  (B2) (A1) (A1) (A1) (A1) (B2) (A1) (A1) (B2) (B1)
                 (A1) (A2) (B2) (A1) (B1) (B2)
       Virtual   (A1) (A1) (A1) (A1) (A1) (A1) (A1) (A1) (A1) (A1)
                 (A1) (A1) (A1) (A1) (A1) (A1) (A1) (A1) (A1) (A1)
                 (A1) (A1) (A1) (A1) (A1) (A1) (A1) (A1) (A1) (A1)
                 (A1) (A1) (A1) (A1) (A1) (A1) (A1) (A1) (A2) (A2)
                 (A2) (A2) (A2) (A2) (A2) (A2) (A2) (A2) (A2) (A2)
                 (A2) (A2) (A2) (B1) (B1) (B1) (B1) (B1) (B1) (B1)
                 (B1) (B1) (B1) (B1) (B1) (B1) (B1) (B1) (B1) (B1)
                 (B1) (B1) (B1) (B1) (B1) (B2) (B2) (B2) (B2) (B2)
                 (B2) (B2) (B2) (B2) (B2) (B2) (B2) (B2) (B2) (B2)
                 (B2) (B2) (B2) (B2) (B2) (B2) (B2) (B2) (B2) (B2)
                 (B2) (B2) (B2) (B2)
 Keep R1 ints in memory in symmetry-blocked form, NReq=33148318.
 Requested convergence on RMS density matrix=1.00D-08 within 128 cycles.
 Requested convergence on MAX density matrix=1.00D-06.
 Requested convergence on             energy=1.00D-06.
 No special actions if energy rises.
 SCF Done:  E(RHF) =  -311.740187330     A.U. after    9 cycles
            NFock=  9  Conv=0.31D-08     -V/T= 2.0004
 Calling FoFJK, ICntrl=      2127 FMM=F ISym2X=1 I1Cent= 0 IOpClX= 0 NMat=1 NMatS=1 NMatT=0.
 ***** Axes restored to original set *****
 -------------------------------------------------------------------
 Center     Atomic                   Forces (Hartrees/Bohr)
 Number     Number              X              Y              Z
 -------------------------------------------------------------------
      1        6           0.000000000    0.000000000    0.001807124
      2        8           0.000000000    0.000000000   -0.000772941
      3        9           0.000657608    0.000000000   -0.000517092
      4        9          -0.000657608    0.000000000   -0.000517092
 -------------------------------------------------------------------
 Cartesian Forces:  Max     0.001807124 RMS     0.000662244

 GradGradGradGradGradGradGradGradGradGradGradGradGradGradGradGradGradGrad
 Berny optimization.
 Using GEDIIS/GDIIS optimizer.
 FormGI is forming the generalized inverse of G from B-inverse, IUseBI=4.
 Internal  Forces:  Max     0.000835831 RMS     0.000534447
 Search for a local minimum.
 Step number   3 out of a maximum of  100
 All quantities printed in internal units (Hartrees-Bohrs-Radians)
 Mixed Optimization -- En-DIIS/RFO-DIIS
 Update second derivatives using D2CorX and points    1    2    3
 DE= -1.21D-04 DEPred=-1.33D-04 R= 9.09D-01
 TightC=F SS=  1.41D+00  RLast= 2.34D-02 DXNew= 8.4853D-01 7.0140D-02
 Trust test= 9.09D-01 RLast= 2.34D-02 DXMaxT set to 5.05D-01
 The second derivative matrix:
                          R1        R2        R3        A1        A2
           R1           0.89437
           R2           0.06649   0.59428
           R3           0.06649   0.01232   0.59428
           A1          -0.01304  -0.02407  -0.02407   0.26290
           A2          -0.01304  -0.02407  -0.02407   0.01290   0.26290
           A3           0.02607   0.04813   0.04813  -0.02580  -0.02580
           D1           0.00000   0.00000   0.00000   0.00000   0.00000
                          A3        D1
           A3           0.30161
           D1           0.00000   0.02279
 ITU=  1  1  0
 Use linear search instead of GDIIS.
     Eigenvalues ---    0.02279   0.25000   0.30435   0.58196   0.59660
     Eigenvalues ---    0.92743
 RFO step:  Lambda=-2.82671953D-06 EMin= 2.27862172D-02
 Quartic linear search produced a step of  0.05417.
 Iteration  1 RMS(Cart)=  0.00064939 RMS(Int)=  0.00000016
 Iteration  2 RMS(Cart)=  0.00000020 RMS(Int)=  0.00000000
 ClnCor:  largest displacement from symmetrization is 3.72D-11 for atom     1.
 Variable       Old X    -DE/DX   Delta X   Delta X   Delta X     New X
                                 (Linear)    (Quad)   (Total)
    R1        2.17661  -0.00077  -0.00046  -0.00061  -0.00107   2.17554
    R2        2.42254   0.00084   0.00013   0.00143   0.00156   2.42409
    R3        2.42254   0.00084   0.00013   0.00143   0.00156   2.42409
    A1        2.19541   0.00003   0.00048  -0.00021   0.00026   2.19567
    A2        2.19541   0.00003   0.00048  -0.00021   0.00026   2.19567
    A3        1.89237  -0.00006  -0.00095   0.00043  -0.00053   1.89185
    D1        3.14159   0.00000   0.00000   0.00000   0.00000   3.14159
         Item               Value     Threshold  Converged?
 Maximum Force            0.000836     0.000450     NO 
 RMS     Force            0.000534     0.000300     NO 
 Maximum Displacement     0.000981     0.001800     YES
 RMS     Displacement     0.000649     0.001200     YES
 Predicted change in Energy=-1.741626D-06
 GradGradGradGradGradGradGradGradGradGradGradGradGradGradGradGradGradGrad

                          Input orientation:                          
 ---------------------------------------------------------------------
 Center     Atomic      Atomic             Coordinates (Angstroms)
 Number     Number       Type             X           Y           Z
 ---------------------------------------------------------------------
      1          6           0        0.000000    0.000000    0.060005
      2          8           0        0.000000    0.000000    1.211251
      3          9           0        1.040379    0.000000   -0.690412
      4          9           0       -1.040379    0.000000   -0.690412
 ---------------------------------------------------------------------
                    Distance matrix (angstroms):
                    1          2          3          4
     1  C    0.000000
     2  O    1.151247   0.000000
     3  F    1.282775   2.167651   0.000000
     4  F    1.282775   2.167651   2.080758   0.000000
 Stoichiometry    CF2O
 Framework group  C2V[C2(CO),SGV(F2)]
 Deg. of freedom     3
 Full point group                 C2V     NOp   4
 Largest Abelian subgroup         C2V     NOp   4
 Largest concise Abelian subgroup C2      NOp   2
                         Standard orientation:                         
 ---------------------------------------------------------------------
 Center     Atomic      Atomic             Coordinates (Angstroms)
 Number     Number       Type             X           Y           Z
 ---------------------------------------------------------------------
      1          6           0        0.000000    0.000000    0.134297
      2          8           0        0.000000    0.000000    1.285544
      3          9           0        0.000000    1.040379   -0.616119
      4          9           0        0.000000   -1.040379   -0.616119
 ---------------------------------------------------------------------
 Rotational constants (GHZ):     12.3111513     12.2881643      6.1498235
 Standard basis: CC-pVTZ (5D, 7F)
 There are    56 symmetry adapted cartesian basis functions of A1  symmetry.
 There are    17 symmetry adapted cartesian basis functions of A2  symmetry.
 There are    27 symmetry adapted cartesian basis functions of B1  symmetry.
 There are    40 symmetry adapted cartesian basis functions of B2  symmetry.
 There are    46 symmetry adapted basis functions of A1  symmetry.
 There are    16 symmetry adapted basis functions of A2  symmetry.
 There are    24 symmetry adapted basis functions of B1  symmetry.
 There are    34 symmetry adapted basis functions of B2  symmetry.
   120 basis functions,   208 primitive gaussians,   140 cartesian basis functions
    16 alpha electrons       16 beta electrons
       nuclear repulsion energy       122.3700365368 Hartrees.
 NAtoms=    4 NActive=    4 NUniq=    3 SFac= 1.78D+00 NAtFMM=   60 NAOKFM=F Big=F
 Integral buffers will be    131072 words long.
 Raffenetti 1 integral format.
 Two-electron integral symmetry is turned on.
 One-electron integrals computed using PRISM.
 NBasis=   120 RedAO= T EigKep=  6.42D-03  NBF=    46    16    24    34
 NBsUse=   120 1.00D-06 EigRej= -1.00D+00 NBFU=    46    16    24    34
 Initial guess from the checkpoint file:  "/blue/chm6586/le.chen/hw2/Gau-119612.chk"
 B after Tr=     0.000000    0.000000    0.000000
         Rot=    1.000000    0.000000    0.000000    0.000000 Ang=   0.00 deg.
 Initial guess orbital symmetries:
       Occupied  (B2) (A1) (A1) (A1) (A1) (B2) (A1) (A1) (B2) (B1)
                 (A1) (A2) (B2) (A1) (B1) (B2)
       Virtual   (A1) (A1) (A1) (A1) (A1) (A1) (A1) (A1) (A1) (A1)
                 (A1) (A1) (A1) (A1) (A1) (A1) (A1) (A1) (A1) (A1)
                 (A1) (A1) (A1) (A1) (A1) (A1) (A1) (A1) (A1) (A1)
                 (A1) (A1) (A1) (A1) (A1) (A1) (A1) (A1) (A2) (A2)
                 (A2) (A2) (A2) (A2) (A2) (A2) (A2) (A2) (A2) (A2)
                 (A2) (A2) (A2) (B1) (B1) (B1) (B1) (B1) (B1) (B1)
                 (B1) (B1) (B1) (B1) (B1) (B1) (B1) (B1) (B1) (B1)
                 (B1) (B1) (B1) (B1) (B1) (B2) (B2) (B2) (B2) (B2)
                 (B2) (B2) (B2) (B2) (B2) (B2) (B2) (B2) (B2) (B2)
                 (B2) (B2) (B2) (B2) (B2) (B2) (B2) (B2) (B2) (B2)
                 (B2) (B2) (B2) (B2)
 Keep R1 ints in memory in symmetry-blocked form, NReq=33148318.
 Requested convergence on RMS density matrix=1.00D-08 within 128 cycles.
 Requested convergence on MAX density matrix=1.00D-06.
 Requested convergence on             energy=1.00D-06.
 No special actions if energy rises.
 SCF Done:  E(RHF) =  -311.740188990     A.U. after    8 cycles
            NFock=  8  Conv=0.47D-08     -V/T= 2.0004
 Calling FoFJK, ICntrl=      2127 FMM=F ISym2X=1 I1Cent= 0 IOpClX= 0 NMat=1 NMatS=1 NMatT=0.
 ***** Axes restored to original set *****
 -------------------------------------------------------------------
 Center     Atomic                   Forces (Hartrees/Bohr)
 Number     Number              X              Y              Z
 -------------------------------------------------------------------
      1        6           0.000000000    0.000000000   -0.000113585
      2        8           0.000000000    0.000000000    0.000162725
      3        9          -0.000027606    0.000000000   -0.000024570
      4        9           0.000027606    0.000000000   -0.000024570
 -------------------------------------------------------------------
 Cartesian Forces:  Max     0.000162725 RMS     0.000059240

 GradGradGradGradGradGradGradGradGradGradGradGradGradGradGradGradGradGrad
 Berny optimization.
 Using GEDIIS/GDIIS optimizer.
 FormGI is forming the generalized inverse of G from B-inverse, IUseBI=4.
 Internal  Forces:  Max     0.000162725 RMS     0.000067302
 Search for a local minimum.
 Step number   4 out of a maximum of  100
 All quantities printed in internal units (Hartrees-Bohrs-Radians)
 Mixed Optimization -- En-DIIS/RFO-DIIS
 Swapping is turned off.
 Update second derivatives using D2CorX and points    1    2    3    4
 DE= -1.66D-06 DEPred=-1.74D-06 R= 9.53D-01
 TightC=F SS=  1.41D+00  RLast= 2.53D-03 DXNew= 8.4853D-01 7.5928D-03
 Trust test= 9.53D-01 RLast= 2.53D-03 DXMaxT set to 5.05D-01
 The second derivative matrix:
                          R1        R2        R3        A1        A2
           R1           0.98481
           R2           0.03857   0.58926
           R3           0.03857   0.00730   0.58926
           A1          -0.00158  -0.02750  -0.02750   0.26082
           A2          -0.00158  -0.02750  -0.02750   0.01082   0.26082
           A3           0.00316   0.05500   0.05500  -0.02164  -0.02164
           D1           0.00000   0.00000   0.00000   0.00000   0.00000
                          A3        D1
           A3           0.29328
           D1           0.00000   0.02279
 ITU=  1  1  1  0
     Eigenvalues ---    0.02279   0.25000   0.28551   0.58196   0.61802
     Eigenvalues ---    0.99276
 En-DIIS/RFO-DIIS IScMMF=        0 using points:     4    3
 RFO step:  Lambda=-3.59697629D-08.
 DidBck=F Rises=F RFO-DIIS coefs:    0.95783    0.04217
 Iteration  1 RMS(Cart)=  0.00013109 RMS(Int)=  0.00000001
 Iteration  2 RMS(Cart)=  0.00000001 RMS(Int)=  0.00000000
 ClnCor:  largest displacement from symmetrization is 3.73D-11 for atom     1.
 Variable       Old X    -DE/DX   Delta X   Delta X   Delta X     New X
                                 (Linear)    (Quad)   (Total)
    R1        2.17554   0.00016   0.00005   0.00012   0.00017   2.17571
    R2        2.42409  -0.00001  -0.00007   0.00007   0.00000   2.42410
    R3        2.42409  -0.00001  -0.00007   0.00007   0.00000   2.42410
    A1        2.19567   0.00003  -0.00001   0.00010   0.00009   2.19576
    A2        2.19567   0.00003  -0.00001   0.00010   0.00009   2.19576
    A3        1.89185  -0.00006   0.00002  -0.00021  -0.00019   1.89166
    D1        3.14159   0.00000   0.00000   0.00000   0.00000   3.14159
         Item               Value     Threshold  Converged?
 Maximum Force            0.000163     0.000450     YES
 RMS     Force            0.000067     0.000300     YES
 Maximum Displacement     0.000217     0.001800     YES
 RMS     Displacement     0.000131     0.001200     YES
 Predicted change in Energy=-2.168700D-08
 Optimization completed.
    -- Stationary point found.
                           ----------------------------
                           !   Optimized Parameters   !
                           ! (Angstroms and Degrees)  !
 --------------------------                            --------------------------
 ! Name  Definition              Value          Derivative Info.                !
 --------------------------------------------------------------------------------
 ! R1    R(1,2)                  1.1512         -DE/DX =    0.0002              !
 ! R2    R(1,3)                  1.2828         -DE/DX =    0.0                 !
 ! R3    R(1,4)                  1.2828         -DE/DX =    0.0                 !
 ! A1    A(2,1,3)              125.8026         -DE/DX =    0.0                 !
 ! A2    A(2,1,4)              125.8026         -DE/DX =    0.0                 !
 ! A3    A(3,1,4)              108.3948         -DE/DX =   -0.0001              !
 ! D1    D(2,1,4,3)            180.0            -DE/DX =    0.0                 !
 --------------------------------------------------------------------------------
 GradGradGradGradGradGradGradGradGradGradGradGradGradGradGradGradGradGrad

                          Input orientation:                          
 ---------------------------------------------------------------------
 Center     Atomic      Atomic             Coordinates (Angstroms)
 Number     Number       Type             X           Y           Z
 ---------------------------------------------------------------------
      1          6           0        0.000000    0.000000    0.060005
      2          8           0        0.000000    0.000000    1.211251
      3          9           0        1.040379    0.000000   -0.690412
      4          9           0       -1.040379    0.000000   -0.690412
 ---------------------------------------------------------------------
                    Distance matrix (angstroms):
                    1          2          3          4
     1  C    0.000000
     2  O    1.151247   0.000000
     3  F    1.282775   2.167651   0.000000
     4  F    1.282775   2.167651   2.080758   0.000000
 Stoichiometry    CF2O
 Framework group  C2V[C2(CO),SGV(F2)]
 Deg. of freedom     3
 Full point group                 C2V     NOp   4
 Largest Abelian subgroup         C2V     NOp   4
 Largest concise Abelian subgroup C2      NOp   2
                         Standard orientation:                         
 ---------------------------------------------------------------------
 Center     Atomic      Atomic             Coordinates (Angstroms)
 Number     Number       Type             X           Y           Z
 ---------------------------------------------------------------------
      1          6           0        0.000000    0.000000    0.134297
      2          8           0        0.000000    0.000000    1.285544
      3          9           0        0.000000    1.040379   -0.616119
      4          9           0        0.000000   -1.040379   -0.616119
 ---------------------------------------------------------------------
 Rotational constants (GHZ):     12.3111513     12.2881643      6.1498235

 **********************************************************************

            Population analysis using the SCF density.

 **********************************************************************

 Orbital symmetries:
       Occupied  (B2) (A1) (A1) (A1) (A1) (B2) (A1) (A1) (B2) (B1)
                 (A1) (A2) (B2) (A1) (B1) (B2)
       Virtual   (B1) (A1) (A1) (B2) (B1) (A1) (B2) (A1) (A1) (B2)
                 (B1) (A1) (B2) (A2) (A1) (A2) (B1) (A1) (B2) (B1)
                 (A1) (B2) (A1) (A2) (A1) (B2) (A1) (B1) (B1) (B2)
                 (A2) (A1) (B2) (A1) (B1) (B2) (A2) (B1) (A1) (B2)
                 (A1) (B2) (A1) (B1) (A2) (A1) (B1) (A1) (B2) (B1)
                 (A1) (A2) (B2) (A1) (B2) (B1) (B2) (A1) (A2) (B1)
                 (B2) (A1) (B2) (B1) (A1) (A2) (A1) (B2) (B1) (A1)
                 (B2) (A2) (A1) (B1) (B2) (A2) (B2) (A1) (B1) (A2)
                 (A1) (B2) (A1) (A1) (B1) (B1) (A1) (A2) (B2) (B2)
                 (A2) (A1) (B2) (B1) (A1) (A2) (B1) (B2) (A1) (B2)
                 (A1) (B2) (A1) (A1)
 The electronic state is 1-A1.
 Alpha  occ. eigenvalues --  -26.38874 -26.38871 -20.60568 -11.51803  -1.77795
 Alpha  occ. eigenvalues --   -1.69401  -1.48371  -0.96279  -0.87614  -0.82758
 Alpha  occ. eigenvalues --   -0.80835  -0.72810  -0.70567  -0.70221  -0.57422
 Alpha  occ. eigenvalues --   -0.55292
 Alpha virt. eigenvalues --    0.18211   0.22437   0.34971   0.35584   0.38067
 Alpha virt. eigenvalues --    0.50637   0.54123   0.68873   0.79151   0.80594
 Alpha virt. eigenvalues --    0.80680   0.83617   0.87906   0.89486   0.95781
 Alpha virt. eigenvalues --    0.96071   1.02277   1.08517   1.08999   1.09176
 Alpha virt. eigenvalues --    1.38367   1.44622   1.63286   1.81162   1.83226
 Alpha virt. eigenvalues --    1.84379   1.91487   2.00243   2.12076   2.16676
 Alpha virt. eigenvalues --    2.18335   2.32533   2.35245   2.36650   2.44513
 Alpha virt. eigenvalues --    2.54407   2.62143   2.62777   2.73837   2.81133
 Alpha virt. eigenvalues --    2.82371   2.94938   3.17181   3.18227   3.19480
 Alpha virt. eigenvalues --    3.46786   3.56621   3.57936   3.62640   3.67374
 Alpha virt. eigenvalues --    3.71785   3.73457   3.79028   4.02624   4.12015
 Alpha virt. eigenvalues --    4.50496   4.65202   5.03751   5.19357   5.23107
 Alpha virt. eigenvalues --    5.31850   5.36782   5.58025   5.60537   5.96786
 Alpha virt. eigenvalues --    6.03464   6.12282   6.50490   6.61303   6.62903
 Alpha virt. eigenvalues --    6.79644   6.80041   6.85741   7.22472   7.23005
 Alpha virt. eigenvalues --    7.29946   7.30979   7.31282   7.33351   7.33454
 Alpha virt. eigenvalues --    7.39349   7.53162   7.56931   7.63418   7.66240
 Alpha virt. eigenvalues --    7.75226   7.89889   7.93667   8.01678   8.81919
 Alpha virt. eigenvalues --    8.83509   8.89713   8.91167   8.92165   9.03497
 Alpha virt. eigenvalues --    9.34449   9.36386   9.51494   9.59705   9.60233
 Alpha virt. eigenvalues --   10.21196  12.26491  12.30336  14.13111
          Condensed to atoms (all electrons):
               1          2          3          4
     1  C    3.801242   0.817595   0.390423   0.390423
     2  O    0.817595   7.602031  -0.063956  -0.063956
     3  F    0.390423  -0.063956   8.887993  -0.060160
     4  F    0.390423  -0.063956  -0.060160   8.887993
 Mulliken charges:
               1
     1  C    0.600316
     2  O   -0.291714
     3  F   -0.154301
     4  F   -0.154301
 Sum of Mulliken charges =   0.00000
 Mulliken charges with hydrogens summed into heavy atoms:
               1
     1  C    0.600316
     2  O   -0.291714
     3  F   -0.154301
     4  F   -0.154301
 Electronic spatial extent (au):  <R**2>=            188.1202
 Charge=              0.0000 electrons
 Dipole moment (field-independent basis, Debye):
    X=              0.0000    Y=              0.0000    Z=             -1.3035  Tot=              1.3035
 Quadrupole moment (field-independent basis, Debye-Ang):
   XX=            -18.3952   YY=            -20.9862   ZZ=            -23.2234
   XY=              0.0000   XZ=              0.0000   YZ=              0.0000
 Traceless Quadrupole moment (field-independent basis, Debye-Ang):
   XX=              2.4731   YY=             -0.1179   ZZ=             -2.3551
   XY=              0.0000   XZ=              0.0000   YZ=              0.0000
 Octapole moment (field-independent basis, Debye-Ang**2):
  XXX=              0.0000  YYY=              0.0000  ZZZ=             -9.2194  XYY=              0.0000
  XXY=              0.0000  XXZ=             -1.7753  XZZ=              0.0000  YZZ=              0.0000
  YYZ=             -1.2790  XYZ=              0.0000
 Hexadecapole moment (field-independent basis, Debye-Ang**3):
 XXXX=            -12.1401 YYYY=            -74.6486 ZZZZ=            -93.8379 XXXY=              0.0000
 XXXZ=              0.0000 YYYX=              0.0000 YYYZ=              0.0000 ZZZX=              0.0000
 ZZZY=              0.0000 XXYY=            -14.4684 XXZZ=            -16.8824 YYZZ=            -27.6629
 XXYZ=              0.0000 YYXZ=              0.0000 ZZXY=              0.0000
 N-N= 1.223700365368D+02 E-N=-9.866540285323D+02  KE= 3.116231755045D+02
 Symmetry A1   KE= 1.953145324825D+02
 Symmetry A2   KE= 6.500830352620D+00
 Symmetry B1   KE= 9.764546936859D+00
 Symmetry B2   KE= 1.000432657325D+02
 B after Tr=     0.000000    0.000000    0.010117
         Rot=    1.000000    0.000000    0.000000    0.000000 Ang=   0.00 deg.
 Final structure in terms of initial Z-matrix:
 C
 O,1,B1
 F,1,B2,2,A2
 F,1,B3,2,A3,3,D3,0
      Variables:
 B1=1.15124672
 B2=1.28277548
 A2=125.80258545
 B3=1.28277548
 A3=125.80258545
 D3=180.
 1\1\GINC-C0704A-S1\FOpt\RHF\CC-pVTZ\C1F2O1\LE.CHEN\19-Sep-2021\0\\#n H
 F/cc-pvtz Opt=(MaxCyc=500)\\Title\\0,1\C,0.,0.,0.0600045609\O,0.,0.,1.
 2112512793\F,1.040378922,0.,-0.6904117513\F,-1.040378922,0.,-0.6904117
 513\\Version=AS64L-G09RevD.01\State=1-A1\HF=-311.740189\RMSD=4.683e-09
 \RMSF=5.924e-05\Dipole=0.,0.,-0.5128175\Quadrupole=-0.0876881,1.838662
 2,-1.7509741,0.,0.,0.\PG=C02V [C2(C1O1),SGV(F2)]\\@


 At the touch of love, everyone becomves a poet.
                                -- Plato
 Job cpu time:       0 days  0 hours  0 minutes 22.0 seconds.
 File lengths (MBytes):  RWF=      9 Int=      0 D2E=      0 Chk=      2 Scr=      1
 Normal termination of Gaussian 09 at Sun Sep 19 22:58:25 2021.
