 Entering Gaussian System, Link 0=g09
 Initial command:
 /apps/gaussian/g09/amd-sse4a/l1.exe "/blue/chm6586/le.chen/hw3/Gau-130709.inp" -scrdir="/blue/chm6586/le.chen/hw3/"
 Entering Link 1 = /apps/gaussian/g09/amd-sse4a/l1.exe PID=    130710.
  
 Copyright (c) 1988,1990,1992,1993,1995,1998,2003,2009,2013,
            Gaussian, Inc.  All Rights Reserved.
  
 This is part of the Gaussian(R) 09 program.  It is based on
 the Gaussian(R) 03 system (copyright 2003, Gaussian, Inc.),
 the Gaussian(R) 98 system (copyright 1998, Gaussian, Inc.),
 the Gaussian(R) 94 system (copyright 1995, Gaussian, Inc.),
 the Gaussian 92(TM) system (copyright 1992, Gaussian, Inc.),
 the Gaussian 90(TM) system (copyright 1990, Gaussian, Inc.),
 the Gaussian 88(TM) system (copyright 1988, Gaussian, Inc.),
 the Gaussian 86(TM) system (copyright 1986, Carnegie Mellon
 University), and the Gaussian 82(TM) system (copyright 1983,
 Carnegie Mellon University). Gaussian is a federally registered
 trademark of Gaussian, Inc.
  
 This software contains proprietary and confidential information,
 including trade secrets, belonging to Gaussian, Inc.
  
 This software is provided under written license and may be
 used, copied, transmitted, or stored only in accord with that
 written license.
  
 The following legend is applicable only to US Government
 contracts under FAR:
  
                    RESTRICTED RIGHTS LEGEND
  
 Use, reproduction and disclosure by the US Government is
 subject to restrictions as set forth in subparagraphs (a)
 and (c) of the Commercial Computer Software - Restricted
 Rights clause in FAR 52.227-19.
  
 Gaussian, Inc.
 340 Quinnipiac St., Bldg. 40, Wallingford CT 06492
  
  
 ---------------------------------------------------------------
 Warning -- This program may not be used in any manner that
 competes with the business of Gaussian, Inc. or will provide
 assistance to any competitor of Gaussian, Inc.  The licensee
 of this program is prohibited from giving any competitor of
 Gaussian, Inc. access to this program.  By using this program,
 the user acknowledges that Gaussian, Inc. is engaged in the
 business of creating and licensing software in the field of
 computational chemistry and represents and warrants to the
 licensee that it is not a competitor of Gaussian, Inc. and that
 it will not use this program in any manner prohibited above.
 ---------------------------------------------------------------
  

 Cite this work as:
 Gaussian 09, Revision D.01,
 M. J. Frisch, G. W. Trucks, H. B. Schlegel, G. E. Scuseria, 
 M. A. Robb, J. R. Cheeseman, G. Scalmani, V. Barone, B. Mennucci, 
 G. A. Petersson, H. Nakatsuji, M. Caricato, X. Li, H. P. Hratchian, 
 A. F. Izmaylov, J. Bloino, G. Zheng, J. L. Sonnenberg, M. Hada, 
 M. Ehara, K. Toyota, R. Fukuda, J. Hasegawa, M. Ishida, T. Nakajima, 
 Y. Honda, O. Kitao, H. Nakai, T. Vreven, J. A. Montgomery, Jr., 
 J. E. Peralta, F. Ogliaro, M. Bearpark, J. J. Heyd, E. Brothers, 
 K. N. Kudin, V. N. Staroverov, T. Keith, R. Kobayashi, J. Normand, 
 K. Raghavachari, A. Rendell, J. C. Burant, S. S. Iyengar, J. Tomasi, 
 M. Cossi, N. Rega, J. M. Millam, M. Klene, J. E. Knox, J. B. Cross, 
 V. Bakken, C. Adamo, J. Jaramillo, R. Gomperts, R. E. Stratmann, 
 O. Yazyev, A. J. Austin, R. Cammi, C. Pomelli, J. W. Ochterski, 
 R. L. Martin, K. Morokuma, V. G. Zakrzewski, G. A. Voth, 
 P. Salvador, J. J. Dannenberg, S. Dapprich, A. D. Daniels, 
 O. Farkas, J. B. Foresman, J. V. Ortiz, J. Cioslowski, 
 and D. J. Fox, Gaussian, Inc., Wallingford CT, 2013.
 
 ******************************************
 Gaussian 09:  AS64L-G09RevD.01 24-Apr-2013
                 7-Oct-2021 
 ******************************************
 ---------------------------------------------------
 # opt=maxcyc=2000 freq hf/cc-pvtz geom=connectivity
 ---------------------------------------------------
 1/6=2000,18=20,19=15,38=1,57=2/1,3;
 2/9=110,12=2,17=6,18=5,40=1/2;
 3/5=16,6=1,11=9,16=1,25=1,30=1,71=1/1,2,3;
 4//1;
 5/5=2,38=5/2;
 6/7=2,8=2,9=2,10=2,28=1/1;
 7//1,2,3,16;
 1/6=2000,18=20,19=15/3(2);
 2/9=110/2;
 99//99;
 2/9=110/2;
 3/5=16,6=1,11=9,16=1,25=1,30=1,71=1/1,2,3;
 4/5=5,16=3,69=1/1;
 5/5=2,38=5/2;
 7//1,2,3,16;
 1/6=2000,18=20,19=15/3(-5);
 2/9=110/2;
 6/7=2,8=2,9=2,10=2,19=2,28=1/1;
 99/9=1/99;
 -----
 Title
 -----
 Symbolic Z-matrix:
 Charge =  0 Multiplicity = 1
 C                    -0.24143   0.39242  -0.00009 
 C                     1.16055  -0.14273  -0.0001 
 H                     1.69008   0.23066  -0.87061 
 H                     1.15494  -1.22245  -0.00491 
 H                     1.68599   0.22235   0.87648 
 O                    -1.21519  -0.27684   0.00001 
 H                    -0.32423   1.486     0.00006 
 

 GradGradGradGradGradGradGradGradGradGradGradGradGradGradGradGradGradGrad
 Berny optimization.
 Initialization pass.
                           ----------------------------
                           !    Initial Parameters    !
                           ! (Angstroms and Degrees)  !
 --------------------------                            --------------------------
 ! Name  Definition              Value          Derivative Info.                !
 --------------------------------------------------------------------------------
 ! R1    R(1,2)                  1.5006         estimate D2E/DX2                !
 ! R2    R(1,6)                  1.1816         estimate D2E/DX2                !
 ! R3    R(1,7)                  1.0967         estimate D2E/DX2                !
 ! R4    R(2,3)                  1.0852         estimate D2E/DX2                !
 ! R5    R(2,4)                  1.0797         estimate D2E/DX2                !
 ! R6    R(2,5)                  1.0852         estimate D2E/DX2                !
 ! A1    A(2,1,6)              124.6072         estimate D2E/DX2                !
 ! A2    A(2,1,7)              115.2223         estimate D2E/DX2                !
 ! A3    A(6,1,7)              120.1705         estimate D2E/DX2                !
 ! A4    A(1,2,3)              109.4614         estimate D2E/DX2                !
 ! A5    A(1,2,4)              110.5944         estimate D2E/DX2                !
 ! A6    A(1,2,5)              109.4122         estimate D2E/DX2                !
 ! A7    A(3,2,4)              110.0621         estimate D2E/DX2                !
 ! A8    A(3,2,5)              107.2137         estimate D2E/DX2                !
 ! A9    A(4,2,5)              110.0303         estimate D2E/DX2                !
 ! D1    D(6,1,2,3)            121.708          estimate D2E/DX2                !
 ! D2    D(6,1,2,4)              0.2788         estimate D2E/DX2                !
 ! D3    D(6,1,2,5)           -121.0784         estimate D2E/DX2                !
 ! D4    D(7,1,2,3)            -58.307          estimate D2E/DX2                !
 ! D5    D(7,1,2,4)           -179.7362         estimate D2E/DX2                !
 ! D6    D(7,1,2,5)             58.9066         estimate D2E/DX2                !
 --------------------------------------------------------------------------------
 Trust Radius=3.00D-01 FncErr=1.00D-07 GrdErr=1.00D-07
 Number of steps in this run=    100 maximum allowed number of steps=    100.
 GradGradGradGradGradGradGradGradGradGradGradGradGradGradGradGradGradGrad

                          Input orientation:                          
 ---------------------------------------------------------------------
 Center     Atomic      Atomic             Coordinates (Angstroms)
 Number     Number       Type             X           Y           Z
 ---------------------------------------------------------------------
      1          6           0       -0.241426    0.392422   -0.000092
      2          6           0        1.160554   -0.142732   -0.000095
      3          1           0        1.690075    0.230661   -0.870608
      4          1           0        1.154940   -1.222454   -0.004907
      5          1           0        1.685992    0.222353    0.876478
      6          8           0       -1.215193   -0.276837    0.000013
      7          1           0       -0.324225    1.485998    0.000063
 ---------------------------------------------------------------------
                    Distance matrix (angstroms):
                    1          2          3          4          5
     1  C    0.000000
     2  C    1.500646   0.000000
     3  H    2.124773   1.085176   0.000000
     4  H    2.134874   1.079747   1.774077   0.000000
     5  H    2.124203   1.085243   1.747111   1.773788   0.000000
     6  O    1.181579   2.379529   3.075080   2.551812   3.071523
     7  H    1.096706   2.203935   2.528111   3.086044   2.530983
                    6          7
     6  O    0.000000
     7  H    1.975199   0.000000
 Stoichiometry    C2H4O
 Framework group  C1[X(C2H4O)]
 Deg. of freedom    15
 Full point group                 C1      NOp   1
 Largest Abelian subgroup         C1      NOp   1
 Largest concise Abelian subgroup C1      NOp   1
                         Standard orientation:                         
 ---------------------------------------------------------------------
 Center     Atomic      Atomic             Coordinates (Angstroms)
 Number     Number       Type             X           Y           Z
 ---------------------------------------------------------------------
      1          6           0       -0.241426    0.392422   -0.000092
      2          6           0        1.160554   -0.142733   -0.000095
      3          1           0        1.690075    0.230660   -0.870608
      4          1           0        1.154939   -1.222455   -0.004907
      5          1           0        1.685992    0.222352    0.876478
      6          8           0       -1.215193   -0.276837    0.000013
      7          1           0       -0.324225    1.485998    0.000063
 ---------------------------------------------------------------------
 Rotational constants (GHZ):     58.4088776     10.3462534      9.2861754
 Standard basis: CC-pVTZ (5D, 7F)
 There are   165 symmetry adapted cartesian basis functions of A   symmetry.
 There are   146 symmetry adapted basis functions of A   symmetry.
   146 basis functions,   224 primitive gaussians,   165 cartesian basis functions
    12 alpha electrons       12 beta electrons
       nuclear repulsion energy        70.5171292109 Hartrees.
 NAtoms=    7 NActive=    7 NUniq=    7 SFac= 1.00D+00 NAtFMM=   60 NAOKFM=F Big=F
 Integral buffers will be    131072 words long.
 Raffenetti 1 integral format.
 Two-electron integral symmetry is turned on.
 One-electron integrals computed using PRISM.
 NBasis=   146 RedAO= T EigKep=  1.02D-03  NBF=   146
 NBsUse=   146 1.00D-06 EigRej= -1.00D+00 NBFU=   146
 ExpMin= 1.03D-01 ExpMax= 1.53D+04 ExpMxC= 5.22D+02 IAcc=1 IRadAn=         1 AccDes= 0.00D+00
 Harris functional with IExCor=  205 and IRadAn=       1 diagonalized for initial guess.
 HarFok:  IExCor=  205 AccDes= 0.00D+00 IRadAn=         1 IDoV= 1 UseB2=F ITyADJ=14
 ICtDFT=  3500011 ScaDFX=  1.000000  1.000000  1.000000  1.000000
 FoFCou: FMM=F IPFlag=           0 FMFlag=      100000 FMFlg1=           0
         NFxFlg=           0 DoJE=T BraDBF=F KetDBF=T FulRan=T
         wScrn=  0.000000 ICntrl=     500 IOpCl=  0 I1Cent=   200000004 NGrid=           0
         NMat0=    1 NMatS0=      1 NMatT0=    0 NMatD0=    1 NMtDS0=    0 NMtDT0=    0
 Petite list used in FoFCou.
 Requested convergence on RMS density matrix=1.00D-08 within 128 cycles.
 Requested convergence on MAX density matrix=1.00D-06.
 Requested convergence on             energy=1.00D-06.
 No special actions if energy rises.
 Integral accuracy reduced to 1.0D-05 until final iterations.
 Initial convergence to 1.0D-05 achieved.  Increase integral accuracy.
 SCF Done:  E(RHF) =  -152.976017033     A.U. after   14 cycles
            NFock= 14  Conv=0.60D-09     -V/T= 2.0003

 **********************************************************************

            Population analysis using the SCF density.

 **********************************************************************

 Orbital symmetries:
       Occupied  (A) (A) (A) (A) (A) (A) (A) (A) (A) (A) (A) (A)
       Virtual   (A) (A) (A) (A) (A) (A) (A) (A) (A) (A) (A) (A)
                 (A) (A) (A) (A) (A) (A) (A) (A) (A) (A) (A) (A)
                 (A) (A) (A) (A) (A) (A) (A) (A) (A) (A) (A) (A)
                 (A) (A) (A) (A) (A) (A) (A) (A) (A) (A) (A) (A)
                 (A) (A) (A) (A) (A) (A) (A) (A) (A) (A) (A) (A)
                 (A) (A) (A) (A) (A) (A) (A) (A) (A) (A) (A) (A)
                 (A) (A) (A) (A) (A) (A) (A) (A) (A) (A) (A) (A)
                 (A) (A) (A) (A) (A) (A) (A) (A) (A) (A) (A) (A)
                 (A) (A) (A) (A) (A) (A) (A) (A) (A) (A) (A) (A)
                 (A) (A) (A) (A) (A) (A) (A) (A) (A) (A) (A) (A)
                 (A) (A) (A) (A) (A) (A) (A) (A) (A) (A) (A) (A)
                 (A) (A)
 The electronic state is 1-A.
 Alpha  occ. eigenvalues --  -20.55505 -11.32730 -11.23587  -1.41055  -1.02123
 Alpha  occ. eigenvalues --   -0.80202  -0.68028  -0.62977  -0.60811  -0.56336
 Alpha  occ. eigenvalues --   -0.51229  -0.42215
 Alpha virt. eigenvalues --    0.14029   0.15109   0.17609   0.20175   0.21887
 Alpha virt. eigenvalues --    0.29229   0.32267   0.38138   0.40841   0.46736
 Alpha virt. eigenvalues --    0.48127   0.50840   0.58157   0.61853   0.62238
 Alpha virt. eigenvalues --    0.62841   0.65791   0.70550   0.73505   0.76561
 Alpha virt. eigenvalues --    0.83974   0.85215   0.90471   0.92753   0.94817
 Alpha virt. eigenvalues --    1.05134   1.13893   1.13979   1.16725   1.17470
 Alpha virt. eigenvalues --    1.19501   1.25907   1.27062   1.32053   1.36974
 Alpha virt. eigenvalues --    1.39540   1.41082   1.47187   1.51548   1.51791
 Alpha virt. eigenvalues --    1.59148   1.65431   1.67969   1.79215   1.91841
 Alpha virt. eigenvalues --    2.00912   2.09062   2.19312   2.34725   2.42318
 Alpha virt. eigenvalues --    2.42983   2.45737   2.54277   2.54433   2.63293
 Alpha virt. eigenvalues --    2.80393   2.83779   2.86820   2.94566   2.98058
 Alpha virt. eigenvalues --    3.04368   3.07636   3.10291   3.12813   3.17615
 Alpha virt. eigenvalues --    3.21990   3.24838   3.28235   3.29838   3.37460
 Alpha virt. eigenvalues --    3.40852   3.42762   3.47138   3.57054   3.57899
 Alpha virt. eigenvalues --    3.59884   3.64321   3.70956   3.74421   3.75961
 Alpha virt. eigenvalues --    3.79041   3.82595   3.84238   3.99438   4.04618
 Alpha virt. eigenvalues --    4.08819   4.09693   4.12451   4.14480   4.20901
 Alpha virt. eigenvalues --    4.22397   4.31419   4.33414   4.37892   4.46525
 Alpha virt. eigenvalues --    4.50569   4.52759   4.55158   4.61028   4.68516
 Alpha virt. eigenvalues --    4.70866   4.83247   4.94833   5.00824   5.13714
 Alpha virt. eigenvalues --    5.14168   5.18330   5.26635   5.39012   5.42610
 Alpha virt. eigenvalues --    5.49869   5.53278   5.60670   5.60707   5.64859
 Alpha virt. eigenvalues --    5.68572   5.70440   5.77546   5.92303   6.10954
 Alpha virt. eigenvalues --    6.22065   6.25545   6.31163   6.75046   6.78648
 Alpha virt. eigenvalues --    6.89616   6.93718   7.34498   7.37482   7.51707
 Alpha virt. eigenvalues --    7.57104  10.63631  14.00438  14.16640
          Condensed to atoms (all electrons):
               1          2          3          4          5          6
     1  C    4.402085   0.319103  -0.022603  -0.027345  -0.022540   0.725160
     2  C    0.319103   4.971285   0.394811   0.389226   0.394817  -0.096258
     3  H   -0.022603   0.394811   0.584449  -0.021144  -0.035408   0.001643
     4  H   -0.027345   0.389226  -0.021144   0.544824  -0.021089   0.008308
     5  H   -0.022540   0.394817  -0.035408  -0.021089   0.584306   0.001602
     6  O    0.725160  -0.096258   0.001643   0.008308   0.001602   7.764741
     7  H    0.417941  -0.112379   0.002328   0.009196   0.002289  -0.078774
               7
     1  C    0.417941
     2  C   -0.112379
     3  H    0.002328
     4  H    0.009196
     5  H    0.002289
     6  O   -0.078774
     7  H    0.690538
 Mulliken charges:
               1
     1  C    0.208199
     2  C   -0.260605
     3  H    0.095924
     4  H    0.118022
     5  H    0.096023
     6  O   -0.326423
     7  H    0.068860
 Sum of Mulliken charges =   0.00000
 Mulliken charges with hydrogens summed into heavy atoms:
               1
     1  C    0.277059
     2  C    0.049364
     6  O   -0.326423
 Electronic spatial extent (au):  <R**2>=            165.0172
 Charge=              0.0000 electrons
 Dipole moment (field-independent basis, Debye):
    X=              2.6965    Y=              1.3356    Z=              0.0006  Tot=              3.0092
 Quadrupole moment (field-independent basis, Debye-Ang):
   XX=            -21.2440   YY=            -17.7802   ZZ=            -17.8279
   XY=             -1.1035   XZ=              0.0012   YZ=             -0.0001
 Traceless Quadrupole moment (field-independent basis, Debye-Ang):
   XX=             -2.2933   YY=              1.1705   ZZ=              1.1228
   XY=             -1.1035   XZ=              0.0012   YZ=             -0.0001
 Octapole moment (field-independent basis, Debye-Ang**2):
  XXX=              1.3321  YYY=             -0.3722  ZZZ=              0.0114  XYY=             -0.9812
  XXY=              0.8626  XXZ=             -0.0005  XZZ=             -0.5535  YZZ=              0.2459
  YYZ=             -0.0085  XYZ=             -0.0028
 Hexadecapole moment (field-independent basis, Debye-Ang**3):
 XXXX=           -148.8146 YYYY=            -39.7230 ZZZZ=            -23.0263 XXXY=              1.3694
 XXXZ=             -0.0063 YYYX=             -1.0207 YYYZ=              0.0087 ZZZX=              0.0195
 ZZZY=             -0.0024 XXYY=            -31.0861 XXZZ=            -25.8162 YYZZ=            -11.3089
 XXYZ=             -0.0108 YYXZ=             -0.0125 ZZXY=              1.1838
 N-N= 7.051712921091D+01 E-N=-5.003738450166D+02  KE= 1.529234945497D+02
 Calling FoFJK, ICntrl=      2127 FMM=F ISym2X=0 I1Cent= 0 IOpClX= 0 NMat=1 NMatS=1 NMatT=0.
 ***** Axes restored to original set *****
 -------------------------------------------------------------------
 Center     Atomic                   Forces (Hartrees/Bohr)
 Number     Number              X              Y              Z
 -------------------------------------------------------------------
      1        6          -0.000021614   -0.000027424   -0.000018535
      2        6          -0.000004554    0.000004150    0.000030249
      3        1          -0.000007735   -0.000008319   -0.000009054
      4        1           0.000016167   -0.000008988    0.000000010
      5        1           0.000003579    0.000002146   -0.000010915
      6        8           0.000026512    0.000036404   -0.000007390
      7        1          -0.000012355    0.000002031    0.000015635
 -------------------------------------------------------------------
 Cartesian Forces:  Max     0.000036404 RMS     0.000016460

 GradGradGradGradGradGradGradGradGradGradGradGradGradGradGradGradGradGrad
 Berny optimization.
 FormGI is forming the generalized inverse of G from B-inverse, IUseBI=4.
 Internal  Forces:  Max     0.000042469 RMS     0.000014004
 Search for a local minimum.
 Step number   1 out of a maximum of  100
 All quantities printed in internal units (Hartrees-Bohrs-Radians)
 Mixed Optimization -- En-DIIS/RFO-DIIS
 Second derivative matrix not updated -- first step.
 ITU=  0
     Eigenvalues ---    0.00757   0.00757   0.07320   0.07597   0.16000
     Eigenvalues ---    0.16000   0.16000   0.16000   0.22000   0.32310
     Eigenvalues ---    0.34049   0.35368   0.35376   0.36025   1.14652
 RFO step:  Lambda=-5.99816721D-08 EMin= 7.57405152D-03
 Linear search not attempted -- first point.
 Iteration  1 RMS(Cart)=  0.00044985 RMS(Int)=  0.00000016
 Iteration  2 RMS(Cart)=  0.00000015 RMS(Int)=  0.00000003
 Variable       Old X    -DE/DX   Delta X   Delta X   Delta X     New X
                                 (Linear)    (Quad)   (Total)
    R1        2.83581   0.00001   0.00000   0.00003   0.00003   2.83584
    R2        2.23286  -0.00004   0.00000  -0.00004  -0.00004   2.23282
    R3        2.07247   0.00000   0.00000   0.00001   0.00001   2.07248
    R4        2.05069   0.00000   0.00000   0.00000   0.00000   2.05069
    R5        2.04043   0.00001   0.00000   0.00002   0.00002   2.04045
    R6        2.05081  -0.00001   0.00000  -0.00002  -0.00002   2.05079
    A1        2.17481   0.00001   0.00000   0.00006   0.00006   2.17487
    A2        2.01101   0.00001   0.00000   0.00005   0.00005   2.01106
    A3        2.09737  -0.00002   0.00000  -0.00011  -0.00011   2.09726
    A4        1.91046  -0.00001   0.00000  -0.00012  -0.00012   1.91034
    A5        1.93024   0.00002   0.00000   0.00016   0.00016   1.93039
    A6        1.90960   0.00001   0.00000   0.00006   0.00006   1.90967
    A7        1.92095  -0.00001   0.00000  -0.00010  -0.00010   1.92085
    A8        1.87123   0.00000   0.00000  -0.00001  -0.00001   1.87122
    A9        1.92039  -0.00001   0.00000   0.00000   0.00000   1.92039
    D1        2.12420  -0.00001   0.00000  -0.00062  -0.00062   2.12359
    D2        0.00487   0.00000   0.00000  -0.00052  -0.00052   0.00435
    D3       -2.11322  -0.00001   0.00000  -0.00066  -0.00066  -2.11388
    D4       -1.01765  -0.00001   0.00000  -0.00131  -0.00131  -1.01896
    D5       -3.13699   0.00000   0.00000  -0.00121  -0.00121  -3.13820
    D6        1.02811  -0.00001   0.00000  -0.00135  -0.00135   1.02676
         Item               Value     Threshold  Converged?
 Maximum Force            0.000042     0.000450     YES
 RMS     Force            0.000014     0.000300     YES
 Maximum Displacement     0.001288     0.001800     YES
 RMS     Displacement     0.000450     0.001200     YES
 Predicted change in Energy=-2.999150D-08
 Optimization completed.
    -- Stationary point found.
                           ----------------------------
                           !   Optimized Parameters   !
                           ! (Angstroms and Degrees)  !
 --------------------------                            --------------------------
 ! Name  Definition              Value          Derivative Info.                !
 --------------------------------------------------------------------------------
 ! R1    R(1,2)                  1.5006         -DE/DX =    0.0                 !
 ! R2    R(1,6)                  1.1816         -DE/DX =    0.0                 !
 ! R3    R(1,7)                  1.0967         -DE/DX =    0.0                 !
 ! R4    R(2,3)                  1.0852         -DE/DX =    0.0                 !
 ! R5    R(2,4)                  1.0797         -DE/DX =    0.0                 !
 ! R6    R(2,5)                  1.0852         -DE/DX =    0.0                 !
 ! A1    A(2,1,6)              124.6072         -DE/DX =    0.0                 !
 ! A2    A(2,1,7)              115.2223         -DE/DX =    0.0                 !
 ! A3    A(6,1,7)              120.1705         -DE/DX =    0.0                 !
 ! A4    A(1,2,3)              109.4614         -DE/DX =    0.0                 !
 ! A5    A(1,2,4)              110.5944         -DE/DX =    0.0                 !
 ! A6    A(1,2,5)              109.4122         -DE/DX =    0.0                 !
 ! A7    A(3,2,4)              110.0621         -DE/DX =    0.0                 !
 ! A8    A(3,2,5)              107.2137         -DE/DX =    0.0                 !
 ! A9    A(4,2,5)              110.0303         -DE/DX =    0.0                 !
 ! D1    D(6,1,2,3)            121.708          -DE/DX =    0.0                 !
 ! D2    D(6,1,2,4)              0.2788         -DE/DX =    0.0                 !
 ! D3    D(6,1,2,5)           -121.0784         -DE/DX =    0.0                 !
 ! D4    D(7,1,2,3)            -58.307          -DE/DX =    0.0                 !
 ! D5    D(7,1,2,4)           -179.7362         -DE/DX =    0.0                 !
 ! D6    D(7,1,2,5)             58.9066         -DE/DX =    0.0                 !
 --------------------------------------------------------------------------------
 GradGradGradGradGradGradGradGradGradGradGradGradGradGradGradGradGradGrad

                          Input orientation:                          
 ---------------------------------------------------------------------
 Center     Atomic      Atomic             Coordinates (Angstroms)
 Number     Number       Type             X           Y           Z
 ---------------------------------------------------------------------
      1          6           0       -0.241426    0.392422   -0.000092
      2          6           0        1.160554   -0.142732   -0.000095
      3          1           0        1.690075    0.230661   -0.870608
      4          1           0        1.154940   -1.222454   -0.004907
      5          1           0        1.685992    0.222353    0.876478
      6          8           0       -1.215193   -0.276837    0.000013
      7          1           0       -0.324225    1.485998    0.000063
 ---------------------------------------------------------------------
                    Distance matrix (angstroms):
                    1          2          3          4          5
     1  C    0.000000
     2  C    1.500646   0.000000
     3  H    2.124773   1.085176   0.000000
     4  H    2.134874   1.079747   1.774077   0.000000
     5  H    2.124203   1.085243   1.747111   1.773788   0.000000
     6  O    1.181579   2.379529   3.075080   2.551812   3.071523
     7  H    1.096706   2.203935   2.528111   3.086044   2.530983
                    6          7
     6  O    0.000000
     7  H    1.975199   0.000000
 Stoichiometry    C2H4O
 Framework group  C1[X(C2H4O)]
 Deg. of freedom    15
 Full point group                 C1      NOp   1
 Largest Abelian subgroup         C1      NOp   1
 Largest concise Abelian subgroup C1      NOp   1
                         Standard orientation:                         
 ---------------------------------------------------------------------
 Center     Atomic      Atomic             Coordinates (Angstroms)
 Number     Number       Type             X           Y           Z
 ---------------------------------------------------------------------
      1          6           0       -0.241426    0.392422   -0.000092
      2          6           0        1.160554   -0.142733   -0.000095
      3          1           0        1.690075    0.230660   -0.870608
      4          1           0        1.154939   -1.222455   -0.004907
      5          1           0        1.685992    0.222352    0.876478
      6          8           0       -1.215193   -0.276837    0.000013
      7          1           0       -0.324225    1.485998    0.000063
 ---------------------------------------------------------------------
 Rotational constants (GHZ):     58.4088776     10.3462534      9.2861754
 1\1\GINC-C0700A-S2\FOpt\RHF\CC-pVTZ\C2H4O1\LE.CHEN\07-Oct-2021\0\\# op
 t=maxcyc=2000 freq hf/cc-pvtz geom=connectivity\\Title\\0,1\C,-0.24142
 6,0.392422,-0.000092\C,1.160554,-0.142732,-0.000095\H,1.690075,0.23066
 1,-0.870608\H,1.15494,-1.222454,-0.004907\H,1.685992,0.222353,0.876478
 \O,-1.215193,-0.276837,0.000013\H,-0.324225,1.485998,0.000063\\Version
 =AS64L-G09RevD.01\State=1-A\HF=-152.976017\RMSD=5.955e-10\RMSF=1.646e-
 05\Dipole=1.0609026,0.5254703,0.0002489\Quadrupole=-1.7050407,0.870244
 ,0.8347967,-0.8203933,0.000877,-0.0000586\PG=C01 [X(C2H4O1)]\\@


 IT IS WELL TO REMEMBER THAT MAN IS A PART OF NATURE AND THAT HIS WORKS,
 WHATEVER THEY MAY BE, ARE NO MORE "UNNATURAL" THAN 
 THE FLIGHT OF AN EAGLE OR THE PASSAGE OF A TORNADO.

                                    -- CHARLES MCCARRY IN "THE GREAT SOUTHWEST"
 Job cpu time:       0 days  0 hours  0 minutes 38.2 seconds.
 File lengths (MBytes):  RWF=     14 Int=      0 D2E=      0 Chk=      2 Scr=      1
 Normal termination of Gaussian 09 at Thu Oct  7 20:31:08 2021.
 Link1:  Proceeding to internal job step number  2.
 ----------------------------------------------------------------
 #N Geom=AllCheck Guess=TCheck SCRF=Check GenChk RHF/CC-pVTZ Freq
 ----------------------------------------------------------------
 1/6=2000,10=4,29=7,30=1,38=1,40=1/1,3;
 2/12=2,40=1/2;
 3/5=16,6=1,11=1,14=-4,16=1,25=1,30=1,70=2,71=2,116=1,140=1/1,2,3;
 4/5=101/1;
 5/5=2,98=1/2;
 8/6=4,10=90,11=11/1;
 10/13=10,15=4/2;
 11/6=3,8=1,9=11,15=111,16=1/1,2,10;
 10/6=1/2;
 6/7=2,8=2,9=2,10=2,18=1,28=1/1;
 7/8=1,10=1,25=1/1,2,3,16;
 1/6=2000,10=4,30=1/3;
 99//99;
 Structure from the checkpoint file:  "/blue/chm6586/le.chen/hw3/Gau-130710.chk"
 -----
 Title
 -----
 Charge =  0 Multiplicity = 1
 Redundant internal coordinates found in file.
 C,0,-0.241426,0.392422,-0.000092
 C,0,1.160554,-0.142732,-0.000095
 H,0,1.690075,0.230661,-0.870608
 H,0,1.15494,-1.222454,-0.004907
 H,0,1.685992,0.222353,0.876478
 O,0,-1.215193,-0.276837,0.000013
 H,0,-0.324225,1.485998,0.000063
 Recover connectivity data from disk.

 GradGradGradGradGradGradGradGradGradGradGradGradGradGradGradGradGradGrad
 Berny optimization.
 Initialization pass.
                           ----------------------------
                           !    Initial Parameters    !
                           ! (Angstroms and Degrees)  !
 --------------------------                            --------------------------
 ! Name  Definition              Value          Derivative Info.                !
 --------------------------------------------------------------------------------
 ! R1    R(1,2)                  1.5006         calculate D2E/DX2 analytically  !
 ! R2    R(1,6)                  1.1816         calculate D2E/DX2 analytically  !
 ! R3    R(1,7)                  1.0967         calculate D2E/DX2 analytically  !
 ! R4    R(2,3)                  1.0852         calculate D2E/DX2 analytically  !
 ! R5    R(2,4)                  1.0797         calculate D2E/DX2 analytically  !
 ! R6    R(2,5)                  1.0852         calculate D2E/DX2 analytically  !
 ! A1    A(2,1,6)              124.6072         calculate D2E/DX2 analytically  !
 ! A2    A(2,1,7)              115.2223         calculate D2E/DX2 analytically  !
 ! A3    A(6,1,7)              120.1705         calculate D2E/DX2 analytically  !
 ! A4    A(1,2,3)              109.4614         calculate D2E/DX2 analytically  !
 ! A5    A(1,2,4)              110.5944         calculate D2E/DX2 analytically  !
 ! A6    A(1,2,5)              109.4122         calculate D2E/DX2 analytically  !
 ! A7    A(3,2,4)              110.0621         calculate D2E/DX2 analytically  !
 ! A8    A(3,2,5)              107.2137         calculate D2E/DX2 analytically  !
 ! A9    A(4,2,5)              110.0303         calculate D2E/DX2 analytically  !
 ! D1    D(6,1,2,3)            121.708          calculate D2E/DX2 analytically  !
 ! D2    D(6,1,2,4)              0.2788         calculate D2E/DX2 analytically  !
 ! D3    D(6,1,2,5)           -121.0784         calculate D2E/DX2 analytically  !
 ! D4    D(7,1,2,3)            -58.307          calculate D2E/DX2 analytically  !
 ! D5    D(7,1,2,4)           -179.7362         calculate D2E/DX2 analytically  !
 ! D6    D(7,1,2,5)             58.9066         calculate D2E/DX2 analytically  !
 --------------------------------------------------------------------------------
 Trust Radius=3.00D-01 FncErr=1.00D-07 GrdErr=1.00D-07
 Number of steps in this run=      2 maximum allowed number of steps=      2.
 GradGradGradGradGradGradGradGradGradGradGradGradGradGradGradGradGradGrad

                          Input orientation:                          
 ---------------------------------------------------------------------
 Center     Atomic      Atomic             Coordinates (Angstroms)
 Number     Number       Type             X           Y           Z
 ---------------------------------------------------------------------
      1          6           0       -0.241426    0.392422   -0.000092
      2          6           0        1.160554   -0.142732   -0.000095
      3          1           0        1.690075    0.230661   -0.870608
      4          1           0        1.154940   -1.222454   -0.004907
      5          1           0        1.685992    0.222353    0.876478
      6          8           0       -1.215193   -0.276837    0.000013
      7          1           0       -0.324225    1.485998    0.000063
 ---------------------------------------------------------------------
                    Distance matrix (angstroms):
                    1          2          3          4          5
     1  C    0.000000
     2  C    1.500646   0.000000
     3  H    2.124773   1.085176   0.000000
     4  H    2.134874   1.079747   1.774077   0.000000
     5  H    2.124203   1.085243   1.747111   1.773788   0.000000
     6  O    1.181579   2.379529   3.075080   2.551812   3.071523
     7  H    1.096706   2.203935   2.528111   3.086044   2.530983
                    6          7
     6  O    0.000000
     7  H    1.975199   0.000000
 Stoichiometry    C2H4O
 Framework group  C1[X(C2H4O)]
 Deg. of freedom    15
 Full point group                 C1      NOp   1
 Largest Abelian subgroup         C1      NOp   1
 Largest concise Abelian subgroup C1      NOp   1
                         Standard orientation:                         
 ---------------------------------------------------------------------
 Center     Atomic      Atomic             Coordinates (Angstroms)
 Number     Number       Type             X           Y           Z
 ---------------------------------------------------------------------
      1          6           0       -0.241426    0.392422   -0.000092
      2          6           0        1.160554   -0.142733   -0.000095
      3          1           0        1.690075    0.230660   -0.870608
      4          1           0        1.154939   -1.222455   -0.004907
      5          1           0        1.685992    0.222352    0.876478
      6          8           0       -1.215193   -0.276837    0.000013
      7          1           0       -0.324225    1.485998    0.000063
 ---------------------------------------------------------------------
 Rotational constants (GHZ):     58.4088776     10.3462534      9.2861754
 Standard basis: CC-pVTZ (5D, 7F)
 There are   165 symmetry adapted cartesian basis functions of A   symmetry.
 There are   146 symmetry adapted basis functions of A   symmetry.
   146 basis functions,   224 primitive gaussians,   165 cartesian basis functions
    12 alpha electrons       12 beta electrons
       nuclear repulsion energy        70.5171292109 Hartrees.
 NAtoms=    7 NActive=    7 NUniq=    7 SFac= 1.00D+00 NAtFMM=   60 NAOKFM=F Big=F
 Integral buffers will be    131072 words long.
 Raffenetti 1 integral format.
 Two-electron integral symmetry is turned on.
 One-electron integrals computed using PRISM.
 NBasis=   146 RedAO= T EigKep=  1.02D-03  NBF=   146
 NBsUse=   146 1.00D-06 EigRej= -1.00D+00 NBFU=   146
 Initial guess from the checkpoint file:  "/blue/chm6586/le.chen/hw3/Gau-130710.chk"
 B after Tr=     0.000000    0.000000    0.000000
         Rot=    1.000000    0.000000    0.000000    0.000000 Ang=   0.00 deg.
 Requested convergence on RMS density matrix=1.00D-08 within 128 cycles.
 Requested convergence on MAX density matrix=1.00D-06.
 Requested convergence on             energy=1.00D-06.
 No special actions if energy rises.
 SCF Done:  E(RHF) =  -152.976017033     A.U. after    1 cycles
            NFock=  1  Conv=0.20D-09     -V/T= 2.0003
 Range of M.O.s used for correlation:     1   146
 NBasis=   146 NAE=    12 NBE=    12 NFC=     0 NFV=     0
 NROrb=    146 NOA=    12 NOB=    12 NVA=   134 NVB=   134
          Differentiating once with respect to electric field.
                with respect to dipole field.
          Electric field/nuclear overlap derivatives assumed to be zero.
          There are     3 degrees of freedom in the 1st order CPHF.  IDoFFX=0 NUNeed=     3.
      3 vectors produced by pass  0 Test12= 5.36D-14 3.33D-08 XBig12= 7.19D+00 1.62D+00.
 AX will form     3 AO Fock derivatives at one time.
      3 vectors produced by pass  1 Test12= 5.36D-14 3.33D-08 XBig12= 5.37D-01 1.99D-01.
      3 vectors produced by pass  2 Test12= 5.36D-14 3.33D-08 XBig12= 8.71D-02 1.11D-01.
      3 vectors produced by pass  3 Test12= 5.36D-14 3.33D-08 XBig12= 4.53D-03 2.05D-02.
      3 vectors produced by pass  4 Test12= 5.36D-14 3.33D-08 XBig12= 3.31D-04 5.02D-03.
      3 vectors produced by pass  5 Test12= 5.36D-14 3.33D-08 XBig12= 2.36D-05 1.23D-03.
      3 vectors produced by pass  6 Test12= 5.36D-14 3.33D-08 XBig12= 5.49D-07 1.78D-04.
      3 vectors produced by pass  7 Test12= 5.36D-14 3.33D-08 XBig12= 8.02D-09 2.57D-05.
      3 vectors produced by pass  8 Test12= 5.36D-14 3.33D-08 XBig12= 1.32D-10 3.53D-06.
      3 vectors produced by pass  9 Test12= 5.36D-14 3.33D-08 XBig12= 1.98D-12 3.81D-07.
 InvSVY:  IOpt=1 It=  1 EMax= 1.33D-15
 Solved reduced A of dimension    30 with     3 vectors.
 End of Minotr F.D. properties file   721 does not exist.
 End of Minotr F.D. properties file   722 does not exist.
 End of Minotr F.D. properties file   788 does not exist.
 Symmetrizing basis deriv contribution to polar:
 IMax=3 JMax=2 DiffMx= 0.00D+00
 G2DrvN: will do     8 centers at a time, making    1 passes.
 PxScal for G2LodP:  IOpCl= 0 ISclPx=1 IMOff=     1 NMtTot=     4 NTT=   10731 ScalPx= 1.46D+00
 Calling FoFCou, ICntrl=  3107 FMM=F I1Cent=   0 AccDes= 0.00D+00.
 End of G2Drv F.D. properties file   721 does not exist.
 End of G2Drv F.D. properties file   722 does not exist.
 End of G2Drv F.D. properties file   788 does not exist.
          IDoAtm=1111111
          Differentiating once with respect to electric field.
                with respect to dipole field.
          Differentiating once with respect to nuclear coordinates.
          There are    24 degrees of freedom in the 1st order CPHF.  IDoFFX=5 NUNeed=    24.
 Will reuse    3 saved solutions.
     18 vectors produced by pass  0 Test12= 6.70D-15 4.17D-09 XBig12= 8.84D-02 8.75D-02.
 AX will form    18 AO Fock derivatives at one time.
     18 vectors produced by pass  1 Test12= 6.70D-15 4.17D-09 XBig12= 1.57D-02 5.94D-02.
     18 vectors produced by pass  2 Test12= 6.70D-15 4.17D-09 XBig12= 3.98D-04 4.50D-03.
     18 vectors produced by pass  3 Test12= 6.70D-15 4.17D-09 XBig12= 4.23D-06 4.51D-04.
     18 vectors produced by pass  4 Test12= 6.70D-15 4.17D-09 XBig12= 3.40D-08 4.35D-05.
     18 vectors produced by pass  5 Test12= 6.70D-15 4.17D-09 XBig12= 2.41D-10 3.25D-06.
     17 vectors produced by pass  6 Test12= 6.70D-15 4.17D-09 XBig12= 1.33D-12 2.03D-07.
      5 vectors produced by pass  7 Test12= 6.70D-15 4.17D-09 XBig12= 5.28D-15 9.93D-09.
 InvSVY:  IOpt=1 It=  1 EMax= 1.78D-15
 Solved reduced A of dimension   130 with    18 vectors.
 Isotropic polarizability for W=    0.000000       25.54 Bohr**3.
 End of Minotr F.D. properties file   721 does not exist.
 End of Minotr F.D. properties file   722 does not exist.
 End of Minotr F.D. properties file   788 does not exist.

 **********************************************************************

            Population analysis using the SCF density.

 **********************************************************************

 Orbital symmetries:
       Occupied  (A) (A) (A) (A) (A) (A) (A) (A) (A) (A) (A) (A)
       Virtual   (A) (A) (A) (A) (A) (A) (A) (A) (A) (A) (A) (A)
                 (A) (A) (A) (A) (A) (A) (A) (A) (A) (A) (A) (A)
                 (A) (A) (A) (A) (A) (A) (A) (A) (A) (A) (A) (A)
                 (A) (A) (A) (A) (A) (A) (A) (A) (A) (A) (A) (A)
                 (A) (A) (A) (A) (A) (A) (A) (A) (A) (A) (A) (A)
                 (A) (A) (A) (A) (A) (A) (A) (A) (A) (A) (A) (A)
                 (A) (A) (A) (A) (A) (A) (A) (A) (A) (A) (A) (A)
                 (A) (A) (A) (A) (A) (A) (A) (A) (A) (A) (A) (A)
                 (A) (A) (A) (A) (A) (A) (A) (A) (A) (A) (A) (A)
                 (A) (A) (A) (A) (A) (A) (A) (A) (A) (A) (A) (A)
                 (A) (A) (A) (A) (A) (A) (A) (A) (A) (A) (A) (A)
                 (A) (A)
 The electronic state is 1-A.
 Alpha  occ. eigenvalues --  -20.55505 -11.32730 -11.23587  -1.41055  -1.02123
 Alpha  occ. eigenvalues --   -0.80202  -0.68028  -0.62977  -0.60811  -0.56336
 Alpha  occ. eigenvalues --   -0.51229  -0.42215
 Alpha virt. eigenvalues --    0.14029   0.15109   0.17609   0.20175   0.21887
 Alpha virt. eigenvalues --    0.29229   0.32267   0.38138   0.40841   0.46736
 Alpha virt. eigenvalues --    0.48127   0.50840   0.58157   0.61853   0.62238
 Alpha virt. eigenvalues --    0.62841   0.65791   0.70550   0.73505   0.76561
 Alpha virt. eigenvalues --    0.83974   0.85215   0.90471   0.92753   0.94817
 Alpha virt. eigenvalues --    1.05134   1.13893   1.13979   1.16725   1.17470
 Alpha virt. eigenvalues --    1.19501   1.25907   1.27062   1.32053   1.36974
 Alpha virt. eigenvalues --    1.39540   1.41082   1.47187   1.51548   1.51791
 Alpha virt. eigenvalues --    1.59148   1.65431   1.67969   1.79215   1.91841
 Alpha virt. eigenvalues --    2.00912   2.09062   2.19312   2.34725   2.42318
 Alpha virt. eigenvalues --    2.42983   2.45737   2.54277   2.54433   2.63293
 Alpha virt. eigenvalues --    2.80393   2.83779   2.86820   2.94566   2.98058
 Alpha virt. eigenvalues --    3.04368   3.07636   3.10291   3.12813   3.17615
 Alpha virt. eigenvalues --    3.21990   3.24838   3.28235   3.29838   3.37460
 Alpha virt. eigenvalues --    3.40852   3.42762   3.47138   3.57054   3.57899
 Alpha virt. eigenvalues --    3.59884   3.64321   3.70956   3.74421   3.75961
 Alpha virt. eigenvalues --    3.79041   3.82595   3.84238   3.99438   4.04618
 Alpha virt. eigenvalues --    4.08819   4.09693   4.12451   4.14480   4.20901
 Alpha virt. eigenvalues --    4.22397   4.31419   4.33414   4.37892   4.46525
 Alpha virt. eigenvalues --    4.50569   4.52759   4.55158   4.61028   4.68516
 Alpha virt. eigenvalues --    4.70866   4.83247   4.94833   5.00824   5.13714
 Alpha virt. eigenvalues --    5.14168   5.18330   5.26635   5.39012   5.42610
 Alpha virt. eigenvalues --    5.49869   5.53278   5.60670   5.60707   5.64859
 Alpha virt. eigenvalues --    5.68572   5.70440   5.77546   5.92303   6.10954
 Alpha virt. eigenvalues --    6.22065   6.25545   6.31163   6.75046   6.78648
 Alpha virt. eigenvalues --    6.89616   6.93718   7.34498   7.37482   7.51707
 Alpha virt. eigenvalues --    7.57104  10.63631  14.00438  14.16640
          Condensed to atoms (all electrons):
               1          2          3          4          5          6
     1  C    4.402085   0.319103  -0.022603  -0.027345  -0.022540   0.725160
     2  C    0.319103   4.971285   0.394811   0.389226   0.394817  -0.096258
     3  H   -0.022603   0.394811   0.584449  -0.021144  -0.035408   0.001643
     4  H   -0.027345   0.389226  -0.021144   0.544824  -0.021089   0.008308
     5  H   -0.022540   0.394817  -0.035408  -0.021089   0.584306   0.001602
     6  O    0.725160  -0.096258   0.001643   0.008308   0.001602   7.764741
     7  H    0.417941  -0.112379   0.002328   0.009196   0.002289  -0.078774
               7
     1  C    0.417941
     2  C   -0.112379
     3  H    0.002328
     4  H    0.009196
     5  H    0.002289
     6  O   -0.078774
     7  H    0.690538
 Mulliken charges:
               1
     1  C    0.208199
     2  C   -0.260605
     3  H    0.095924
     4  H    0.118022
     5  H    0.096023
     6  O   -0.326423
     7  H    0.068860
 Sum of Mulliken charges =   0.00000
 Mulliken charges with hydrogens summed into heavy atoms:
               1
     1  C    0.277059
     2  C    0.049364
     6  O   -0.326423
 APT charges:
               1
     1  C    0.853004
     2  C   -0.028106
     3  H    0.004004
     4  H    0.000903
     5  H    0.004134
     6  O   -0.757985
     7  H   -0.075955
 Sum of APT charges =   0.00000
 APT charges with hydrogens summed into heavy atoms:
               1
     1  C    0.777049
     2  C   -0.019064
     6  O   -0.757985
 Electronic spatial extent (au):  <R**2>=            165.0172
 Charge=              0.0000 electrons
 Dipole moment (field-independent basis, Debye):
    X=              2.6965    Y=              1.3356    Z=              0.0006  Tot=              3.0092
 Quadrupole moment (field-independent basis, Debye-Ang):
   XX=            -21.2440   YY=            -17.7802   ZZ=            -17.8279
   XY=             -1.1035   XZ=              0.0012   YZ=             -0.0001
 Traceless Quadrupole moment (field-independent basis, Debye-Ang):
   XX=             -2.2933   YY=              1.1705   ZZ=              1.1228
   XY=             -1.1035   XZ=              0.0012   YZ=             -0.0001
 Octapole moment (field-independent basis, Debye-Ang**2):
  XXX=              1.3321  YYY=             -0.3722  ZZZ=              0.0114  XYY=             -0.9812
  XXY=              0.8626  XXZ=             -0.0005  XZZ=             -0.5535  YZZ=              0.2459
  YYZ=             -0.0085  XYZ=             -0.0028
 Hexadecapole moment (field-independent basis, Debye-Ang**3):
 XXXX=           -148.8146 YYYY=            -39.7230 ZZZZ=            -23.0263 XXXY=              1.3694
 XXXZ=             -0.0063 YYYX=             -1.0207 YYYZ=              0.0087 ZZZX=              0.0195
 ZZZY=             -0.0024 XXYY=            -31.0861 XXZZ=            -25.8162 YYZZ=            -11.3089
 XXYZ=             -0.0108 YYXZ=             -0.0125 ZZXY=              1.1838
 N-N= 7.051712921091D+01 E-N=-5.003738448497D+02  KE= 1.529234944863D+02
  Exact polarizability:  29.981   1.785  26.405   0.001   0.001  20.235
 Approx polarizability:  25.012   2.787  23.314   0.002   0.000  19.394
 Calling FoFJK, ICntrl=    100127 FMM=F ISym2X=0 I1Cent= 0 IOpClX= 0 NMat=1 NMatS=1 NMatT=0.
 Full mass-weighted force constant matrix:
 Low frequencies ---   -5.3681    0.0007    0.0010    0.0017    2.7157    6.8040
 Low frequencies ---  168.1414  546.3155  849.7455
 Diagonal vibrational polarizability:
        3.1431025       1.8405052       2.4329453
 Diagonal vibrational hyperpolarizability:
       13.1638175      -4.7807837      -0.0329188
 Harmonic frequencies (cm**-1), IR intensities (KM/Mole), Raman scattering
 activities (A**4/AMU), depolarization ratios for plane and unpolarized
 incident light, reduced masses (AMU), force constants (mDyne/A),
 and normal coordinates:
                      1                      2                      3
                      A                      A                      A
 Frequencies --    168.1413               546.3155               849.7455
 Red. masses --      1.2425                 2.5678                 1.1230
 Frc consts  --      0.0207                 0.4515                 0.4778
 IR Inten    --      2.3968                19.8724                 0.2053
 Raman Activ --      0.7561                 1.1765                 3.3277
 Depolar (P) --      0.7500                 0.4319                 0.7500
 Depolar (U) --      0.8571                 0.6033                 0.8571
  Atom  AN      X      Y      Z        X      Y      Z        X      Y      Z
     1   6     0.00   0.00   0.11     0.02  -0.21   0.00     0.00   0.00   0.06
     2   6     0.00   0.00   0.00     0.17   0.03   0.00     0.00   0.00   0.07
     3   1    -0.28  -0.39  -0.34    -0.01   0.33   0.02    -0.46   0.19  -0.14
     4   1     0.00   0.00   0.44     0.75   0.02   0.00     0.00   0.00  -0.27
     5   1     0.28   0.39  -0.34    -0.01   0.33  -0.01     0.47  -0.20  -0.14
     6   8     0.00   0.00  -0.08    -0.20   0.11   0.00     0.00   0.00  -0.03
     7   1     0.00   0.00   0.32     0.24  -0.18   0.00     0.00   0.00  -0.61
                      4                      5                      6
                      A                      A                      A
 Frequencies --    952.0837              1222.0926              1256.3769
 Red. masses --      2.1819                 1.9849                 1.7676
 Frc consts  --      1.1653                 1.7466                 1.6439
 IR Inten    --      5.8339                27.0064                 0.3903
 Raman Activ --      7.0094                 2.5954                 0.9657
 Depolar (P) --      0.2404                 0.2496                 0.7500
 Depolar (U) --      0.3876                 0.3995                 0.8571
  Atom  AN      X      Y      Z        X      Y      Z        X      Y      Z
     1   6    -0.14   0.09   0.00    -0.13   0.18   0.00     0.00   0.00   0.22
     2   6     0.25   0.01   0.00     0.01  -0.19   0.00     0.00   0.00  -0.14
     3   1     0.46  -0.37  -0.03    -0.07   0.24   0.12     0.40  -0.06   0.10
     4   1    -0.21   0.00   0.00     0.82  -0.19   0.00     0.00   0.00   0.28
     5   1     0.45  -0.36   0.03    -0.06   0.24  -0.12    -0.40   0.06   0.10
     6   8    -0.10  -0.03   0.00     0.05  -0.03   0.00     0.00   0.00  -0.05
     7   1    -0.41   0.07   0.00    -0.11   0.20   0.00     0.00   0.00  -0.71
                      7                      8                      9
                      A                      A                      A
 Frequencies --   1508.8414              1543.9636              1577.7220
 Red. masses --      1.2445                 1.2323                 1.0514
 Frc consts  --      1.6692                 1.7308                 1.5420
 IR Inten    --     11.0085                16.5002                19.5019
 Raman Activ --      2.1941                 4.1691                 9.9683
 Depolar (P) --      0.7476                 0.2940                 0.6622
 Depolar (U) --      0.8556                 0.4544                 0.7968
  Atom  AN      X      Y      Z        X      Y      Z        X      Y      Z
     1   6     0.01   0.00   0.00     0.06  -0.07   0.00     0.01   0.00   0.00
     2   6     0.13  -0.07   0.00    -0.07  -0.01   0.00     0.00  -0.05   0.00
     3   1    -0.46   0.26  -0.21     0.17   0.00   0.15     0.28   0.43   0.36
     4   1    -0.42  -0.06   0.00     0.19  -0.01   0.00    -0.44  -0.04   0.00
     5   1    -0.46   0.26   0.21     0.17   0.00  -0.15     0.28   0.44  -0.36
     6   8     0.01   0.02   0.00     0.03   0.07   0.00    -0.02  -0.02   0.00
     7   1    -0.40  -0.02   0.00    -0.91  -0.16   0.00     0.10   0.01   0.00
                     10                     11                     12
                      A                      A                      A
 Frequencies --   1590.5723              2002.5856              3074.7690
 Red. masses --      1.0473                 9.7388                 1.0841
 Frc consts  --      1.5611                23.0111                 6.0388
 IR Inten    --      8.4732               242.5041               110.6945
 Raman Activ --      5.9863                10.9862               119.8428
 Depolar (P) --      0.7500                 0.6315                 0.3637
 Depolar (U) --      0.8571                 0.7742                 0.5334
  Atom  AN      X      Y      Z        X      Y      Z        X      Y      Z
     1   6     0.00   0.00  -0.03     0.61   0.35   0.00    -0.01   0.08   0.00
     2   6     0.00   0.00  -0.05    -0.06  -0.01   0.00     0.00  -0.01   0.00
     3   1    -0.16   0.46   0.06    -0.13  -0.02  -0.05     0.03   0.03  -0.07
     4   1     0.00   0.00   0.72     0.25   0.02   0.00     0.00   0.00   0.00
     5   1     0.16  -0.45   0.05    -0.13  -0.03   0.05     0.03   0.03   0.07
     6   8     0.00   0.00   0.00    -0.39  -0.26   0.00     0.00   0.00   0.00
     7   1     0.00   0.00   0.07    -0.36   0.23   0.00     0.09  -0.98   0.00
                     13                     14                     15
                      A                      A                      A
 Frequencies --   3160.1876              3212.2777              3270.3233
 Red. masses --      1.0390                 1.0992                 1.1027
 Frc consts  --      6.1132                 6.6828                 6.9482
 IR Inten    --      6.9594                18.0645                17.2929
 Raman Activ --    165.9005                63.1426                47.7972
 Depolar (P) --      0.0097                 0.7499                 0.6810
 Depolar (U) --      0.0192                 0.8571                 0.8102
  Atom  AN      X      Y      Z        X      Y      Z        X      Y      Z
     1   6     0.00   0.01   0.00     0.00   0.00   0.00     0.00  -0.01   0.00
     2   6     0.05   0.00   0.00     0.00   0.00   0.09    -0.02  -0.09   0.00
     3   1    -0.31  -0.22   0.52     0.35   0.25  -0.56     0.13   0.08  -0.22
     4   1     0.01   0.40   0.00     0.00  -0.01   0.02     0.00   0.92   0.00
     5   1    -0.31  -0.21  -0.53    -0.35  -0.24  -0.56     0.13   0.08   0.22
     6   8     0.00   0.00   0.00     0.00   0.00   0.00     0.00   0.00   0.00
     7   1     0.02  -0.10   0.00     0.00   0.00   0.00    -0.01   0.05   0.00

 -------------------
 - Thermochemistry -
 -------------------
 Temperature   298.150 Kelvin.  Pressure   1.00000 Atm.
 Atom     1 has atomic number  6 and mass  12.00000
 Atom     2 has atomic number  6 and mass  12.00000
 Atom     3 has atomic number  1 and mass   1.00783
 Atom     4 has atomic number  1 and mass   1.00783
 Atom     5 has atomic number  1 and mass   1.00783
 Atom     6 has atomic number  8 and mass  15.99491
 Atom     7 has atomic number  1 and mass   1.00783
 Molecular mass:    44.02621 amu.
 Principal axes and moments of inertia in atomic units:
                           1         2         3
     Eigenvalues --    30.89841 174.43427 194.34709
           X            0.99966  -0.02616   0.00002
           Y            0.02616   0.99966   0.00003
           Z           -0.00002  -0.00003   1.00000
 This molecule is an asymmetric top.
 Rotational symmetry number  1.
 Rotational temperatures (Kelvin)      2.80318     0.49654     0.44567
 Rotational constants (GHZ):          58.40888    10.34625     9.28618
 Zero-point vibrational energy     155131.7 (Joules/Mol)
                                   37.07737 (Kcal/Mol)
 Warning -- explicit consideration of   2 degrees of freedom as
           vibrations may cause significant error
 Vibrational temperatures:    241.92   786.03  1222.59  1369.83  1758.32
          (Kelvin)           1807.64  2170.88  2221.42  2269.99  2288.48
                             2881.27  4423.90  4546.80  4621.75  4705.26
 
 Zero-point correction=                           0.059087 (Hartree/Particle)
 Thermal correction to Energy=                    0.062878
 Thermal correction to Enthalpy=                  0.063822
 Thermal correction to Gibbs Free Energy=         0.034245
 Sum of electronic and zero-point Energies=           -152.916930
 Sum of electronic and thermal Energies=              -152.913139
 Sum of electronic and thermal Enthalpies=            -152.912195
 Sum of electronic and thermal Free Energies=         -152.941772
 
                     E (Thermal)             CV                S
                      KCal/Mol        Cal/Mol-Kelvin    Cal/Mol-Kelvin
 Total                   39.457             10.618             62.250
 Electronic               0.000              0.000              0.000
 Translational            0.889              2.981             37.273
 Rotational               0.889              2.981             21.576
 Vibrational             37.679              4.656              3.401
 Vibration     1          0.625              1.882              2.456
 Vibration     2          0.902              1.148              0.552
                       Q            Log10(Q)             Ln(Q)
 Total Bot       0.177144D-15        -15.751673        -36.269568
 Total V=0       0.266806D+12         11.426196         26.309788
 Vib (Bot)       0.133163D-26        -26.875615        -61.883390
 Vib (Bot)    1  0.119927D+01          0.078919          0.181717
 Vib (Bot)    2  0.288271D+00         -0.540199         -1.243853
 Vib (V=0)       0.200564D+01          0.302254          0.695965
 Vib (V=0)    1  0.179933D+01          0.255111          0.587415
 Vib (V=0)    2  0.107715D+01          0.032276          0.074317
 Electronic      0.100000D+01          0.000000          0.000000
 Translational   0.114821D+08          7.060022         16.256302
 Rotational      0.115856D+05          4.063919          9.357520
 ***** Axes restored to original set *****
 -------------------------------------------------------------------
 Center     Atomic                   Forces (Hartrees/Bohr)
 Number     Number              X              Y              Z
 -------------------------------------------------------------------
      1        6          -0.000021614   -0.000027427   -0.000018535
      2        6          -0.000004553    0.000004152    0.000030248
      3        1          -0.000007735   -0.000008320   -0.000009052
      4        1           0.000016167   -0.000008986    0.000000010
      5        1           0.000003578    0.000002145   -0.000010917
      6        8           0.000026513    0.000036406   -0.000007391
      7        1          -0.000012355    0.000002031    0.000015637
 -------------------------------------------------------------------
 Cartesian Forces:  Max     0.000036406 RMS     0.000016460
 FormGI is forming the generalized inverse of G from B-inverse, IUseBI=4.

 GradGradGradGradGradGradGradGradGradGradGradGradGradGradGradGradGradGrad
 Berny optimization.
 Internal  Forces:  Max     0.000042471 RMS     0.000014005
 Search for a local minimum.
 Step number   1 out of a maximum of    2
 All quantities printed in internal units (Hartrees-Bohrs-Radians)
 Second derivative matrix not updated -- analytic derivatives used.
 ITU=  0
     Eigenvalues ---    0.00145   0.05226   0.06294   0.06487   0.12439
     Eigenvalues ---    0.14312   0.15128   0.17780   0.25311   0.32802
     Eigenvalues ---    0.33893   0.36011   0.36770   0.37761   1.05032
 Angle between quadratic step and forces=  72.30 degrees.
 Linear search not attempted -- first point.
 Iteration  1 RMS(Cart)=  0.00233790 RMS(Int)=  0.00000315
 Iteration  2 RMS(Cart)=  0.00000326 RMS(Int)=  0.00000005
 Iteration  3 RMS(Cart)=  0.00000000 RMS(Int)=  0.00000005
 Variable       Old X    -DE/DX   Delta X   Delta X   Delta X     New X
                                 (Linear)    (Quad)   (Total)
    R1        2.83581   0.00001   0.00000   0.00002   0.00002   2.83583
    R2        2.23286  -0.00004   0.00000  -0.00004  -0.00004   2.23282
    R3        2.07247   0.00000   0.00000   0.00002   0.00002   2.07249
    R4        2.05069   0.00000   0.00000   0.00006   0.00006   2.05074
    R5        2.04043   0.00001   0.00000   0.00002   0.00002   2.04045
    R6        2.05081  -0.00001   0.00000  -0.00007  -0.00007   2.05074
    A1        2.17481   0.00001   0.00000   0.00009   0.00009   2.17489
    A2        2.01101   0.00001   0.00000  -0.00001  -0.00001   2.01100
    A3        2.09737  -0.00002   0.00000  -0.00008  -0.00008   2.09729
    A4        1.91046  -0.00001   0.00000  -0.00046  -0.00046   1.91000
    A5        1.93024   0.00002   0.00000   0.00017   0.00017   1.93041
    A6        1.90960   0.00001   0.00000   0.00039   0.00039   1.91000
    A7        1.92095  -0.00001   0.00000  -0.00033  -0.00033   1.92062
    A8        1.87123   0.00000   0.00000   0.00000   0.00000   1.87123
    A9        1.92039  -0.00001   0.00000   0.00023   0.00023   1.92062
    D1        2.12420  -0.00001   0.00000  -0.00547  -0.00547   2.11873
    D2        0.00487   0.00000   0.00000  -0.00487  -0.00487   0.00000
    D3       -2.11322  -0.00001   0.00000  -0.00552  -0.00552  -2.11873
    D4       -1.01765  -0.00001   0.00000  -0.00521  -0.00521  -1.02286
    D5       -3.13699   0.00000   0.00000  -0.00461  -0.00461   3.14159
    D6        1.02811  -0.00001   0.00000  -0.00525  -0.00525   1.02286
         Item               Value     Threshold  Converged?
 Maximum Force            0.000042     0.000450     YES
 RMS     Force            0.000014     0.000300     YES
 Maximum Displacement     0.006001     0.001800     NO 
 RMS     Displacement     0.002338     0.001200     NO 
 Predicted change in Energy=-1.236557D-07
 GradGradGradGradGradGradGradGradGradGradGradGradGradGradGradGradGradGrad

 1\1\GINC-C0700A-S2\Freq\RHF\CC-pVTZ\C2H4O1\LE.CHEN\07-Oct-2021\0\\#N G
 eom=AllCheck Guess=TCheck SCRF=Check GenChk RHF/CC-pVTZ Freq\\Title\\0
 ,1\C,-0.241426,0.392422,-0.000092\C,1.160554,-0.142732,-0.000095\H,1.6
 90075,0.230661,-0.870608\H,1.15494,-1.222454,-0.004907\H,1.685992,0.22
 2353,0.876478\O,-1.215193,-0.276837,0.000013\H,-0.324225,1.485998,0.00
 0063\\Version=AS64L-G09RevD.01\State=1-A\HF=-152.976017\RMSD=2.042e-10
 \RMSF=1.646e-05\ZeroPoint=0.0590866\Thermal=0.062878\Dipole=1.0609026,
 0.5254703,0.0002489\DipoleDeriv=1.3677426,0.1733373,0.0004098,0.089303
 2,1.000267,0.0000864,0.0002695,0.000335,0.1910024,-0.2746514,0.0736211
 ,-0.0007083,0.1476843,0.0292014,-0.0000747,-0.001662,-0.0002318,0.1611
 333,0.0238004,-0.0103149,0.04124,-0.0002614,0.0401517,0.0802213,0.0850
 76,0.0625905,-0.0519396,0.0294276,-0.0250852,-0.0001232,0.0366601,-0.0
 990428,-0.0007268,0.0003359,-0.0007728,0.0723245,0.0242846,-0.0097601,
 -0.0407447,0.0009397,0.0417187,-0.0793537,-0.0841467,-0.061788,-0.0536
 01,-1.1518061,-0.2603384,-0.0001308,-0.3158927,-0.7404054,-0.000105,0.
 0001064,-0.0001314,-0.3817424,-0.0187977,0.0585402,0.0000572,0.0415668
 ,-0.2718906,-0.0000476,0.000021,-0.0000015,0.0628228\Polar=29.9806619,
 1.7849588,26.405173,0.0014066,0.0006223,20.2350804\PolarDeriv=2.426854
 6,5.1521786,-3.1480378,0.0060849,-0.0014862,-0.0606197,3.0505161,3.611
 975,-8.9402696,-0.002008,-0.0108605,1.2440141,0.0014271,-0.0027702,-0.
 0090033,1.963398,1.4615577,0.0052563,0.6897351,-3.8453442,1.1819645,0.
 0027575,0.0197605,-3.9198759,-3.2027292,-0.6512636,6.0841438,0.0215169
 ,0.0516535,-3.2719429,-0.0103346,0.0223824,0.0498918,-5.2510449,-2.886
 4671,-0.0725016,3.5250404,1.0604616,0.477055,-2.1360989,-0.4306965,2.2
 979791,1.7323454,1.1302908,0.82584,-0.6903131,-1.4602246,1.5907633,-2.
 6823167,-0.5067386,-1.2007775,3.1324258,1.45094,-5.061923,-0.0289808,-
 0.8900198,-0.2947326,-0.0063357,-0.0012622,0.3678118,-1.3474251,1.1104
 319,-8.3880563,0.0013729,-0.0280148,-0.8625373,-0.0049611,0.0009678,-0
 .0271776,0.7222047,-1.1085001,-0.0099606,3.4979061,1.0376305,0.4639791
 ,2.1363075,0.4137968,2.3021889,1.7044037,1.1147546,0.7885856,0.6708674
 ,1.4438815,1.5749534,2.6958197,0.485734,1.1833841,3.1441469,1.4333124,
 5.1407078,-9.9789202,-4.0296115,1.5512251,-0.0027811,-0.0011592,-0.973
 6812,-3.0732218,-4.3775284,-1.291202,-0.0007561,0.002376,-1.1647257,-0
 .0016932,-0.0000503,0.0003322,-3.1707608,-1.8886438,-0.0016475,-0.1316
 352,1.5147048,-0.2314533,0.0000658,0.0010467,-0.013803,1.1361107,-1.93
 86603,10.9209585,-0.0006799,0.0011888,0.8894752,0.0020588,0.0004749,0.
 0033503,-0.5403697,1.5378008,0.0000687\HyperPolar=48.668121,10.6826808
 ,15.0922088,32.9570343,-0.0708749,-0.0698334,-0.2157828,30.5834918,13.
 2086239,0.2763843\PG=C01 [X(C2H4O1)]\NImag=0\\0.97582150,0.26832638,0.
 83492206,-0.00008632,0.00002340,0.25615977,-0.19930941,0.06141877,0.00
 006757,0.54913460,0.06795034,-0.14509469,0.00002387,0.02676433,0.65907
 044,0.00014497,-0.00004807,-0.10434366,-0.00031551,0.00013940,0.571959
 71,-0.01327498,-0.01962306,0.03292926,-0.11968439,-0.04260848,0.115140
 04,0.12762077,0.00258584,0.00579731,-0.01429561,-0.04255790,-0.0906202
 2,0.07642103,0.05018996,0.08843735,-0.00287048,-0.00013782,0.00175586,
 0.11128619,0.07711456,-0.22977105,-0.12223463,-0.08563056,0.25074949,0
 .00319032,0.04323738,0.00019084,-0.05800302,-0.00708880,0.00002927,0.0
 0019383,-0.01765601,-0.00216779,0.05635468,-0.00373671,-0.01704398,-0.
 00005412,-0.00015662,-0.34738013,-0.00130538,0.00009654,-0.00816380,-0
 .00030628,0.00177189,0.37487114,-0.00005054,0.00004116,-0.00058270,0.0
 0004950,-0.00130821,-0.05769278,-0.00163321,0.02983687,0.00231527,0.00
 001000,0.00144200,0.05309842,-0.01321464,-0.01928677,-0.03317826,-0.11
 860945,-0.04121568,-0.11503843,0.01119766,0.00683838,0.01552944,0.0001
 8344,0.00007903,0.00161716,0.12643036,0.00249246,0.00567253,0.01431351
 ,-0.04109428,-0.08903550,-0.07517076,0.00693914,0.00401878,0.01009727,
 -0.01755164,-0.00791116,-0.03002919,0.04863324,0.08673970,0.00278364,0
 .00012194,0.00175979,-0.11108055,-0.07593730,-0.23216314,-0.01529778,-
 0.00979792,-0.02404807,0.00198469,0.00020880,0.00204851,0.12208277,0.0
 8425147,0.25340992,-0.67486827,-0.37744337,0.00008304,-0.05505294,-0.0
 3624901,-0.00001474,-0.00711424,0.00183083,-0.00035950,0.00480523,-0.0
 0052396,0.00002093,-0.00703223,0.00180399,0.00035385,0.73909795,-0.386
 18141,-0.39534966,0.00002877,-0.00177588,0.02293949,-0.00003679,0.0035
 8601,0.00071088,-0.00041000,-0.00512838,0.00529581,0.00001324,0.003531
 78,0.00071265,0.00043227,0.43982009,0.40094718,0.00009217,0.00002724,-
 0.07830476,-0.00003107,-0.00004818,0.03007873,-0.00495471,0.00207463,-
 0.00098822,-0.00002609,0.00001797,-0.00136599,0.00500765,-0.00203903,-
 0.00099455,-0.00008577,-0.00002948,0.02635063,-0.07834452,0.04337066,-
 0.00000613,0.00152461,0.03244730,0.00005439,0.00106134,-0.00123111,0.0
 0081676,-0.00672448,0.00246983,-0.00001384,0.00104486,-0.00122291,-0.0
 0082663,0.00016450,-0.05385221,-0.00000218,0.08127369,0.04856311,-0.28
 890357,-0.00003982,-0.00259843,-0.00987938,0.00000058,0.00141989,-0.00
 018030,-0.00072715,0.00241556,0.00033212,0.00000412,0.00142002,-0.0001
 9699,0.00072075,-0.02923858,-0.03525634,-0.00000315,-0.02198157,0.3340
 8446,-0.00001345,-0.00002785,-0.07644430,0.00002387,0.00001586,0.02193
 218,-0.00394897,0.00139156,-0.00001327,-0.00002091,-0.00000297,0.00217
 928,0.00397966,-0.00142326,-0.00001246,0.00000218,0.00000198,0.0252241
 6,-0.00002238,0.00004468,0.02713442\\0.00002161,0.00002743,0.00001853,
 0.00000455,-0.00000415,-0.00003025,0.00000774,0.00000832,0.00000905,-0
 .00001617,0.00000899,0.,-0.00000358,-0.00000215,0.00001092,-0.00002651
 ,-0.00003641,0.00000739,0.00001235,-0.00000203,-0.00001564\\\@


 REALITY IS FOR PEOPLE WHO CAN'T FACE SCIENCE FICTION.
 Job cpu time:       0 days  0 hours  2 minutes  1.2 seconds.
 File lengths (MBytes):  RWF=     19 Int=      0 D2E=      0 Chk=      3 Scr=      1
 Normal termination of Gaussian 09 at Thu Oct  7 20:33:09 2021.
