 Entering Gaussian System, Link 0=g09
 Initial command:
 /apps/gaussian/g09/amd-sse4a/l1.exe "/blue/chm6586/le.chen/hw2/lumo_hf/Gau-62607.inp" -scrdir="/blue/chm6586/le.chen/hw2/lumo_hf/"
 Entering Link 1 = /apps/gaussian/g09/amd-sse4a/l1.exe PID=     62608.
  
 Copyright (c) 1988,1990,1992,1993,1995,1998,2003,2009,2013,
            Gaussian, Inc.  All Rights Reserved.
  
 This is part of the Gaussian(R) 09 program.  It is based on
 the Gaussian(R) 03 system (copyright 2003, Gaussian, Inc.),
 the Gaussian(R) 98 system (copyright 1998, Gaussian, Inc.),
 the Gaussian(R) 94 system (copyright 1995, Gaussian, Inc.),
 the Gaussian 92(TM) system (copyright 1992, Gaussian, Inc.),
 the Gaussian 90(TM) system (copyright 1990, Gaussian, Inc.),
 the Gaussian 88(TM) system (copyright 1988, Gaussian, Inc.),
 the Gaussian 86(TM) system (copyright 1986, Carnegie Mellon
 University), and the Gaussian 82(TM) system (copyright 1983,
 Carnegie Mellon University). Gaussian is a federally registered
 trademark of Gaussian, Inc.
  
 This software contains proprietary and confidential information,
 including trade secrets, belonging to Gaussian, Inc.
  
 This software is provided under written license and may be
 used, copied, transmitted, or stored only in accord with that
 written license.
  
 The following legend is applicable only to US Government
 contracts under FAR:
  
                    RESTRICTED RIGHTS LEGEND
  
 Use, reproduction and disclosure by the US Government is
 subject to restrictions as set forth in subparagraphs (a)
 and (c) of the Commercial Computer Software - Restricted
 Rights clause in FAR 52.227-19.
  
 Gaussian, Inc.
 340 Quinnipiac St., Bldg. 40, Wallingford CT 06492
  
  
 ---------------------------------------------------------------
 Warning -- This program may not be used in any manner that
 competes with the business of Gaussian, Inc. or will provide
 assistance to any competitor of Gaussian, Inc.  The licensee
 of this program is prohibited from giving any competitor of
 Gaussian, Inc. access to this program.  By using this program,
 the user acknowledges that Gaussian, Inc. is engaged in the
 business of creating and licensing software in the field of
 computational chemistry and represents and warrants to the
 licensee that it is not a competitor of Gaussian, Inc. and that
 it will not use this program in any manner prohibited above.
 ---------------------------------------------------------------
  

 Cite this work as:
 Gaussian 09, Revision D.01,
 M. J. Frisch, G. W. Trucks, H. B. Schlegel, G. E. Scuseria, 
 M. A. Robb, J. R. Cheeseman, G. Scalmani, V. Barone, B. Mennucci, 
 G. A. Petersson, H. Nakatsuji, M. Caricato, X. Li, H. P. Hratchian, 
 A. F. Izmaylov, J. Bloino, G. Zheng, J. L. Sonnenberg, M. Hada, 
 M. Ehara, K. Toyota, R. Fukuda, J. Hasegawa, M. Ishida, T. Nakajima, 
 Y. Honda, O. Kitao, H. Nakai, T. Vreven, J. A. Montgomery, Jr., 
 J. E. Peralta, F. Ogliaro, M. Bearpark, J. J. Heyd, E. Brothers, 
 K. N. Kudin, V. N. Staroverov, T. Keith, R. Kobayashi, J. Normand, 
 K. Raghavachari, A. Rendell, J. C. Burant, S. S. Iyengar, J. Tomasi, 
 M. Cossi, N. Rega, J. M. Millam, M. Klene, J. E. Knox, J. B. Cross, 
 V. Bakken, C. Adamo, J. Jaramillo, R. Gomperts, R. E. Stratmann, 
 O. Yazyev, A. J. Austin, R. Cammi, C. Pomelli, J. W. Ochterski, 
 R. L. Martin, K. Morokuma, V. G. Zakrzewski, G. A. Voth, 
 P. Salvador, J. J. Dannenberg, S. Dapprich, A. D. Daniels, 
 O. Farkas, J. B. Foresman, J. V. Ortiz, J. Cioslowski, 
 and D. J. Fox, Gaussian, Inc., Wallingford CT, 2013.
 
 ******************************************
 Gaussian 09:  AS64L-G09RevD.01 24-Apr-2013
                23-Sep-2021 
 ******************************************
 ---------------------------
 #hf/6-31g opt=(maxcyc=2000)
 ---------------------------
 1/6=2000,18=20,19=15,38=1/1,3;
 2/9=110,12=2,17=6,18=5,40=1/2;
 3/5=1,6=6,11=9,16=1,25=1,30=1,71=1/1,2,3;
 4//1;
 5/5=2,38=5/2;
 6/7=2,8=2,9=2,10=2,28=1/1;
 7//1,2,3,16;
 1/6=2000,18=20,19=15/3(2);
 2/9=110/2;
 99//99;
 2/9=110/2;
 3/5=1,6=6,11=9,16=1,25=1,30=1,71=1/1,2,3;
 4/5=5,16=3,69=1/1;
 5/5=2,38=5/2;
 7//1,2,3,16;
 1/6=2000,18=20,19=15/3(-5);
 2/9=110/2;
 6/7=2,8=2,9=2,10=2,19=2,28=1/1;
 99/9=1/99;
 -----
 Title
 -----
 Symbolic Z-matrix:
 Charge =  0 Multiplicity = 1
 C
 C                    1    B1
 H                    1    B2       2    A2
 H                    1    B3       2    A3       3    D3       0
 H                    1    B4       2    A4       3    D4       0
 C                    2    B5       1    A5       3    D5       0
 H                    2    B6       1    A6       3    D6       0
 H                    6    B7       2    A7       1    D7       0
 H                    6    B8       2    A8       1    D8       0
       Variables:
  B1                    1.49293                  
  B2                    1.09424                  
  A2                  110.83176                  
  B3                    1.09473                  
  A3                  109.88083                  
  D3                  240.92157                  
  B4                    1.09436                  
  A4                  111.02528                  
  D4                  121.83324                  
  B5                    1.33845                  
  A5                  123.36176                  
  D5                  295.41885                  
  B6                    1.08757                  
  A6                  117.30036                  
  D6                  115.48785                  
  B7                    1.08576                  
  A7                  121.56871                  
  D7                    0.21139                  
  B8                    1.08569                  
  A8                  120.83049                  
  D8                  180.02814                  
 

 GradGradGradGradGradGradGradGradGradGradGradGradGradGradGradGradGradGrad
 Berny optimization.
 Initialization pass.
                           ----------------------------
                           !    Initial Parameters    !
                           ! (Angstroms and Degrees)  !
 --------------------------                            --------------------------
 ! Name  Definition              Value          Derivative Info.                !
 --------------------------------------------------------------------------------
 ! R1    R(1,2)                  1.4929         estimate D2E/DX2                !
 ! R2    R(1,3)                  1.0942         estimate D2E/DX2                !
 ! R3    R(1,4)                  1.0947         estimate D2E/DX2                !
 ! R4    R(1,5)                  1.0944         estimate D2E/DX2                !
 ! R5    R(2,6)                  1.3384         estimate D2E/DX2                !
 ! R6    R(2,7)                  1.0876         estimate D2E/DX2                !
 ! R7    R(6,8)                  1.0858         estimate D2E/DX2                !
 ! R8    R(6,9)                  1.0857         estimate D2E/DX2                !
 ! A1    A(2,1,3)              110.8318         estimate D2E/DX2                !
 ! A2    A(2,1,4)              109.8808         estimate D2E/DX2                !
 ! A3    A(2,1,5)              111.0253         estimate D2E/DX2                !
 ! A4    A(3,1,4)              107.8321         estimate D2E/DX2                !
 ! A5    A(3,1,5)              109.424          estimate D2E/DX2                !
 ! A6    A(4,1,5)              107.7423         estimate D2E/DX2                !
 ! A7    A(1,2,6)              123.3618         estimate D2E/DX2                !
 ! A8    A(1,2,7)              117.3004         estimate D2E/DX2                !
 ! A9    A(6,2,7)              119.3378         estimate D2E/DX2                !
 ! A10   A(2,6,8)              121.5687         estimate D2E/DX2                !
 ! A11   A(2,6,9)              120.8305         estimate D2E/DX2                !
 ! A12   A(8,6,9)              117.6006         estimate D2E/DX2                !
 ! D1    D(3,1,2,6)            -64.5811         estimate D2E/DX2                !
 ! D2    D(3,1,2,7)            115.4878         estimate D2E/DX2                !
 ! D3    D(4,1,2,6)            176.3404         estimate D2E/DX2                !
 ! D4    D(4,1,2,7)             -3.5906         estimate D2E/DX2                !
 ! D5    D(5,1,2,6)             57.2521         estimate D2E/DX2                !
 ! D6    D(5,1,2,7)           -122.6789         estimate D2E/DX2                !
 ! D7    D(1,2,6,8)              0.2114         estimate D2E/DX2                !
 ! D8    D(1,2,6,9)           -179.9719         estimate D2E/DX2                !
 ! D9    D(7,2,6,8)           -179.8589         estimate D2E/DX2                !
 ! D10   D(7,2,6,9)             -0.0422         estimate D2E/DX2                !
 --------------------------------------------------------------------------------
 Trust Radius=3.00D-01 FncErr=1.00D-07 GrdErr=1.00D-07
 Number of steps in this run=    100 maximum allowed number of steps=    100.
 GradGradGradGradGradGradGradGradGradGradGradGradGradGradGradGradGradGrad

                          Input orientation:                          
 ---------------------------------------------------------------------
 Center     Atomic      Atomic             Coordinates (Angstroms)
 Number     Number       Type             X           Y           Z
 ---------------------------------------------------------------------
      1          6           0        0.000000    0.000000    0.000000
      2          6           0        0.000000    0.000000    1.492930
      3          1           0        1.022708    0.000000   -0.389139
      4          1           0       -0.500337    0.899725   -0.372279
      5          1           0       -0.538789   -0.867853   -0.392634
      6          6           0        0.479836   -1.009675    2.228975
      7          1           0       -0.415874    0.872374    1.991750
      8          1           0        0.905057   -1.896476    1.768924
      9          1           0        0.458841   -0.966564    3.313606
 ---------------------------------------------------------------------
                    Distance matrix (angstroms):
                    1          2          3          4          5
     1  C    0.000000
     2  C    1.492930   0.000000
     3  H    1.094240   2.141989   0.000000
     4  H    1.094730   2.130457   1.769027   0.000000
     5  H    1.094360   2.144485   1.786464   1.768113   0.000000
     6  C    2.493595   1.338450   2.858090   3.372398   2.816122
     7  H    2.213832   1.087570   2.915336   2.365695   2.954452
     8  H    2.746788   2.119415   2.875361   3.791915   2.795548
     9  H    3.482063   2.111786   3.868141   4.241321   3.839430
                    6          7          8          9
     6  C    0.000000
     7  H    2.097780   0.000000
     8  H    1.085760   3.075880   0.000000
     9  H    1.085690   2.427782   1.857386   0.000000
 Stoichiometry    C3H6
 Framework group  C1[X(C3H6)]
 Deg. of freedom    21
 Full point group                 C1      NOp   1
 Largest Abelian subgroup         C1      NOp   1
 Largest concise Abelian subgroup C1      NOp   1
                         Standard orientation:                         
 ---------------------------------------------------------------------
 Center     Atomic      Atomic             Coordinates (Angstroms)
 Number     Number       Type             X           Y           Z
 ---------------------------------------------------------------------
      1          6           0        1.222373   -0.168169    0.000101
      2          6           0       -0.127631    0.469271    0.000234
      3          1           0        1.386653   -0.731834    0.923494
      4          1           0        1.997690    0.601948   -0.064997
      5          1           0        1.341646   -0.834965   -0.859423
      6          6           0       -1.270520   -0.227330   -0.000403
      7          1           0       -0.166057    1.556162   -0.000278
      8          1           0       -1.274428   -1.313080    0.002351
      9          1           0       -2.230840    0.279136   -0.000734
 ---------------------------------------------------------------------
 Rotational constants (GHZ):     45.6550773      9.4404544      8.2327384
 Standard basis: 6-31G (6D, 7F)
 There are    39 symmetry adapted cartesian basis functions of A   symmetry.
 There are    39 symmetry adapted basis functions of A   symmetry.
    39 basis functions,    90 primitive gaussians,    39 cartesian basis functions
    12 alpha electrons       12 beta electrons
       nuclear repulsion energy        70.8209169680 Hartrees.
 NAtoms=    9 NActive=    9 NUniq=    9 SFac= 1.00D+00 NAtFMM=   60 NAOKFM=F Big=F
 Integral buffers will be    131072 words long.
 Raffenetti 1 integral format.
 Two-electron integral symmetry is turned on.
 One-electron integrals computed using PRISM.
 NBasis=    39 RedAO= T EigKep=  6.91D-03  NBF=    39
 NBsUse=    39 1.00D-06 EigRej= -1.00D+00 NBFU=    39
 ExpMin= 1.61D-01 ExpMax= 3.05D+03 ExpMxC= 4.57D+02 IAcc=1 IRadAn=         1 AccDes= 0.00D+00
 Harris functional with IExCor=  205 and IRadAn=       1 diagonalized for initial guess.
 HarFok:  IExCor=  205 AccDes= 0.00D+00 IRadAn=         1 IDoV= 1 UseB2=F ITyADJ=14
 ICtDFT=  3500011 ScaDFX=  1.000000  1.000000  1.000000  1.000000
 FoFCou: FMM=F IPFlag=           0 FMFlag=      100000 FMFlg1=           0
         NFxFlg=           0 DoJE=T BraDBF=F KetDBF=T FulRan=T
         wScrn=  0.000000 ICntrl=     500 IOpCl=  0 I1Cent=   200000004 NGrid=           0
         NMat0=    1 NMatS0=      1 NMatT0=    0 NMatD0=    1 NMtDS0=    0 NMtDT0=    0
 Petite list used in FoFCou.
 Keep R1 ints in memory in canonical form, NReq=1150598.
 Requested convergence on RMS density matrix=1.00D-08 within 128 cycles.
 Requested convergence on MAX density matrix=1.00D-06.
 Requested convergence on             energy=1.00D-06.
 No special actions if energy rises.
 SCF Done:  E(RHF) =  -117.023987470     A.U. after   11 cycles
            NFock= 11  Conv=0.78D-08     -V/T= 1.9994

 **********************************************************************

            Population analysis using the SCF density.

 **********************************************************************

 Orbital symmetries:
       Occupied  (A) (A) (A) (A) (A) (A) (A) (A) (A) (A) (A) (A)
       Virtual   (A) (A) (A) (A) (A) (A) (A) (A) (A) (A) (A) (A)
                 (A) (A) (A) (A) (A) (A) (A) (A) (A) (A) (A) (A)
                 (A) (A) (A)
 The electronic state is 1-A.
 Alpha  occ. eigenvalues --  -11.23606 -11.21976 -11.21884  -1.06549  -0.93153
 Alpha  occ. eigenvalues --   -0.75301  -0.63539  -0.58126  -0.56945  -0.51396
 Alpha  occ. eigenvalues --   -0.48400  -0.35055
 Alpha virt. eigenvalues --    0.17336   0.24954   0.27331   0.29754   0.33661
 Alpha virt. eigenvalues --    0.34542   0.35564   0.44870   0.50919   0.71296
 Alpha virt. eigenvalues --    0.76324   0.78235   0.84320   0.85271   0.92388
 Alpha virt. eigenvalues --    0.94015   1.01617   1.07338   1.16006   1.19761
 Alpha virt. eigenvalues --    1.21194   1.23092   1.24556   1.25727   1.40517
 Alpha virt. eigenvalues --    1.54755   1.57694
          Condensed to atoms (all electrons):
               1          2          3          4          5          6
     1  C    5.146768   0.286609   0.390095   0.389304   0.391390  -0.068009
     2  C    0.286609   5.071561  -0.045408  -0.042383  -0.045541   0.606826
     3  H    0.390095  -0.045408   0.535651  -0.028408  -0.024816  -0.004729
     4  H    0.389304  -0.042383  -0.028408   0.552932  -0.028237   0.004285
     5  H    0.391390  -0.045541  -0.024816  -0.028237   0.534356  -0.004339
     6  C   -0.068009   0.606826  -0.004729   0.004285  -0.004339   5.067665
     7  H   -0.038389   0.398597   0.002369  -0.004763   0.002489  -0.037800
     8  H   -0.001717  -0.050814   0.000835   0.000041   0.001005   0.400306
     9  H    0.002855  -0.038985  -0.000048  -0.000120  -0.000018   0.393036
               7          8          9
     1  C   -0.038389  -0.001717   0.002855
     2  C    0.398597  -0.050814  -0.038985
     3  H    0.002369   0.000835  -0.000048
     4  H   -0.004763   0.000041  -0.000120
     5  H    0.002489   0.001005  -0.000018
     6  C   -0.037800   0.400306   0.393036
     7  H    0.502503   0.002783  -0.002663
     8  H    0.002783   0.515740  -0.025018
     9  H   -0.002663  -0.025018   0.511587
 Mulliken charges:
               1
     1  C   -0.498906
     2  C   -0.140462
     3  H    0.174459
     4  H    0.157350
     5  H    0.173711
     6  C   -0.357240
     7  H    0.174875
     8  H    0.156839
     9  H    0.159374
 Sum of Mulliken charges =   0.00000
 Mulliken charges with hydrogens summed into heavy atoms:
               1
     1  C    0.006614
     2  C    0.034412
     6  C   -0.041026
 Electronic spatial extent (au):  <R**2>=            195.9718
 Charge=              0.0000 electrons
 Dipole moment (field-independent basis, Debye):
    X=              0.3598    Y=              0.0380    Z=              0.0065  Tot=              0.3618
 Quadrupole moment (field-independent basis, Debye-Ang):
   XX=            -19.5174   YY=            -18.9430   ZZ=            -21.9250
   XY=              0.1175   XZ=             -0.0009   YZ=             -0.0004
 Traceless Quadrupole moment (field-independent basis, Debye-Ang):
   XX=              0.6110   YY=              1.1855   ZZ=             -1.7965
   XY=              0.1175   XZ=             -0.0009   YZ=             -0.0004
 Octapole moment (field-independent basis, Debye-Ang**2):
  XXX=             -2.0811  YYY=              0.6809  ZZZ=              0.1129  XYY=             -0.2940
  XXY=              0.7258  XXZ=             -0.0117  XZZ=              2.1787  YZZ=             -0.8510
  YYZ=             -0.0843  XYZ=             -0.0215
 Hexadecapole moment (field-independent basis, Debye-Ang**3):
 XXXX=           -179.0948 YYYY=            -51.2115 ZZZZ=            -29.9830 XXXY=             -0.3656
 XXXZ=             -0.0856 YYYX=              1.3041 YYYZ=              0.0914 ZZZX=              0.1717
 ZZZY=             -0.0342 XXYY=            -38.6104 XXZZ=            -37.7197 YYZZ=            -14.2573
 XXYZ=             -0.1160 YYXZ=             -0.1270 ZZXY=             -0.9589
 N-N= 7.082091696802D+01 E-N=-4.136639626557D+02  KE= 1.170927608230D+02
 Calling FoFJK, ICntrl=      2127 FMM=F ISym2X=0 I1Cent= 0 IOpClX= 0 NMat=1 NMatS=1 NMatT=0.
 ***** Axes restored to original set *****
 -------------------------------------------------------------------
 Center     Atomic                   Forces (Hartrees/Bohr)
 Number     Number              X              Y              Z
 -------------------------------------------------------------------
      1        6          -0.004510913    0.008140466   -0.012103687
      2        6           0.005951182   -0.013666615    0.021966414
      3        1          -0.007562725   -0.001523555   -0.000330210
      4        1           0.004309600   -0.007549489   -0.001015860
      5        1           0.005893599    0.005541217    0.000234739
      6        6          -0.005905796    0.012932534   -0.001234556
      7        1           0.003588858   -0.007094145   -0.003205743
      8        1          -0.003133820    0.005846526    0.004667921
      9        1           0.001370015   -0.002626940   -0.008979018
 -------------------------------------------------------------------
 Cartesian Forces:  Max     0.021966414 RMS     0.007630056

 GradGradGradGradGradGradGradGradGradGradGradGradGradGradGradGradGradGrad
 Berny optimization.
 FormGI is forming the generalized inverse of G from B-inverse, IUseBI=4.
 Internal  Forces:  Max     0.017983782 RMS     0.005885095
 Search for a local minimum.
 Step number   1 out of a maximum of  100
 All quantities printed in internal units (Hartrees-Bohrs-Radians)
 Mixed Optimization -- RFO/linear search
 Second derivative matrix not updated -- first step.
 ITU=  0
     Eigenvalues ---    0.00859   0.01696   0.02903   0.02903   0.07262
     Eigenvalues ---    0.07479   0.16000   0.16000   0.16000   0.16000
     Eigenvalues ---    0.16000   0.16000   0.22000   0.33131   0.34272
     Eigenvalues ---    0.34314   0.34327   0.35095   0.35307   0.35316
     Eigenvalues ---    0.57554
 RFO step:  Lambda=-3.11621909D-03 EMin= 8.59469985D-03
 Linear search not attempted -- first point.
 Iteration  1 RMS(Cart)=  0.02813160 RMS(Int)=  0.00031665
 Iteration  2 RMS(Cart)=  0.00036893 RMS(Int)=  0.00014531
 Iteration  3 RMS(Cart)=  0.00000009 RMS(Int)=  0.00014531
 Variable       Old X    -DE/DX   Delta X   Delta X   Delta X     New X
                                 (Linear)    (Quad)   (Total)
    R1        2.82123   0.01322   0.00000   0.03952   0.03952   2.86074
    R2        2.06781  -0.00695   0.00000  -0.02007  -0.02007   2.04775
    R3        2.06874  -0.00783   0.00000  -0.02264  -0.02264   2.04610
    R4        2.06804  -0.00738   0.00000  -0.02131  -0.02131   2.04673
    R5        2.52930  -0.01798   0.00000  -0.03108  -0.03108   2.49823
    R6        2.05521  -0.00853   0.00000  -0.02410  -0.02410   2.03111
    R7        2.05179  -0.00798   0.00000  -0.02240  -0.02240   2.02938
    R8        2.05166  -0.00910   0.00000  -0.02555  -0.02555   2.02611
    A1        1.93438   0.00242   0.00000   0.01175   0.01154   1.94592
    A2        1.91778   0.00523   0.00000   0.03771   0.03730   1.95508
    A3        1.93776   0.00180   0.00000   0.00835   0.00816   1.94592
    A4        1.88202  -0.00300   0.00000  -0.01332  -0.01372   1.86831
    A5        1.90981  -0.00419   0.00000  -0.03610  -0.03608   1.87373
    A6        1.88046  -0.00255   0.00000  -0.00979  -0.01015   1.87031
    A7        2.15307   0.00666   0.00000   0.02987   0.02987   2.18294
    A8        2.04728  -0.00251   0.00000  -0.00991  -0.00992   2.03736
    A9        2.08284  -0.00415   0.00000  -0.01995  -0.01996   2.06288
   A10        2.12177   0.00019   0.00000   0.00119   0.00118   2.12296
   A11        2.10889   0.00253   0.00000   0.01552   0.01552   2.12441
   A12        2.05252  -0.00272   0.00000  -0.01669  -0.01670   2.03582
    D1       -1.12715   0.00109   0.00000   0.00549   0.00566  -1.12150
    D2        2.01564   0.00099   0.00000   0.00048   0.00064   2.01628
    D3        3.07772  -0.00004   0.00000  -0.00936  -0.00936   3.06836
    D4       -0.06267  -0.00014   0.00000  -0.01436  -0.01438  -0.07705
    D5        0.99924  -0.00134   0.00000  -0.02662  -0.02676   0.97248
    D6       -2.14115  -0.00144   0.00000  -0.03162  -0.03178  -2.17293
    D7        0.00369  -0.00031   0.00000  -0.01064  -0.01063  -0.00694
    D8       -3.14110  -0.00014   0.00000  -0.00533  -0.00532   3.13676
    D9       -3.13913  -0.00021   0.00000  -0.00553  -0.00554   3.13852
   D10       -0.00074  -0.00004   0.00000  -0.00022  -0.00023  -0.00097
         Item               Value     Threshold  Converged?
 Maximum Force            0.017984     0.000450     NO 
 RMS     Force            0.005885     0.000300     NO 
 Maximum Displacement     0.060041     0.001800     NO 
 RMS     Displacement     0.028050     0.001200     NO 
 Predicted change in Energy=-1.579791D-03
 GradGradGradGradGradGradGradGradGradGradGradGradGradGradGradGradGradGrad

                          Input orientation:                          
 ---------------------------------------------------------------------
 Center     Atomic      Atomic             Coordinates (Angstroms)
 Number     Number       Type             X           Y           Z
 ---------------------------------------------------------------------
      1          6           0       -0.005438    0.011578   -0.007960
      2          6           0        0.007069   -0.014807    1.505600
      3          1           0        0.999492    0.011780   -0.413363
      4          1           0       -0.503805    0.891673   -0.394498
      5          1           0       -0.518145   -0.850962   -0.415662
      6          6           0        0.476614   -1.005581    2.244240
      7          1           0       -0.396650    0.845622    2.007500
      8          1           0        0.889720   -1.892081    1.800697
      9          1           0        0.462585   -0.965691    3.315578
 ---------------------------------------------------------------------
                    Distance matrix (angstroms):
                    1          2          3          4          5
     1  C    0.000000
     2  C    1.513841   0.000000
     3  H    1.083621   2.160561   0.000000
     4  H    1.082751   2.166349   1.741973   0.000000
     5  H    1.083081   2.160150   1.745723   1.742822   0.000000
     6  C    2.517814   1.322004   2.893316   3.394662   2.844034
     7  H    2.216022   1.074817   2.916347   2.404827   2.960552
     8  H    2.774250   2.095307   2.922122   3.809209   2.824580
     9  H    3.495712   2.094683   3.892135   4.260090   3.859682
                    6          7          8          9
     6  C    0.000000
     7  H    2.060482   0.000000
     8  H    1.073904   3.031919   0.000000
     9  H    1.072172   2.393785   1.826337   0.000000
 Stoichiometry    C3H6
 Framework group  C1[X(C3H6)]
 Deg. of freedom    21
 Full point group                 C1      NOp   1
 Largest Abelian subgroup         C1      NOp   1
 Largest concise Abelian subgroup C1      NOp   1
                         Standard orientation:                         
 ---------------------------------------------------------------------
 Center     Atomic      Atomic             Coordinates (Angstroms)
 Number     Number       Type             X           Y           Z
 ---------------------------------------------------------------------
      1          6           0        1.239616   -0.154610    0.000223
      2          6           0       -0.145207    0.456925   -0.001392
      3          1           0        1.425931   -0.713133    0.909934
      4          1           0        2.015346    0.596982   -0.075287
      5          1           0        1.373297   -0.836424   -0.830635
      6          6           0       -1.277187   -0.225946    0.000496
      7          1           0       -0.199700    1.530359   -0.000642
      8          1           0       -1.287239   -1.299797   -0.002934
      9          1           0       -2.230963    0.263804    0.003602
 ---------------------------------------------------------------------
 Rotational constants (GHZ):     47.4775784      9.2653350      8.1357134
 Standard basis: 6-31G (6D, 7F)
 There are    39 symmetry adapted cartesian basis functions of A   symmetry.
 There are    39 symmetry adapted basis functions of A   symmetry.
    39 basis functions,    90 primitive gaussians,    39 cartesian basis functions
    12 alpha electrons       12 beta electrons
       nuclear repulsion energy        70.9189431799 Hartrees.
 NAtoms=    9 NActive=    9 NUniq=    9 SFac= 1.00D+00 NAtFMM=   60 NAOKFM=F Big=F
 Integral buffers will be    131072 words long.
 Raffenetti 1 integral format.
 Two-electron integral symmetry is turned on.
 One-electron integrals computed using PRISM.
 NBasis=    39 RedAO= T EigKep=  6.92D-03  NBF=    39
 NBsUse=    39 1.00D-06 EigRej= -1.00D+00 NBFU=    39
 Initial guess from the checkpoint file:  "/blue/chm6586/le.chen/hw2/lumo_hf/Gau-62608.chk"
 B after Tr=     0.000000    0.000000    0.000000
         Rot=    0.999992    0.002073   -0.000232   -0.003321 Ang=   0.45 deg.
 ExpMin= 1.61D-01 ExpMax= 3.05D+03 ExpMxC= 4.57D+02 IAcc=1 IRadAn=         1 AccDes= 0.00D+00
 Harris functional with IExCor=  205 and IRadAn=       1 diagonalized for initial guess.
 HarFok:  IExCor=  205 AccDes= 0.00D+00 IRadAn=         1 IDoV= 1 UseB2=F ITyADJ=14
 ICtDFT=  3500011 ScaDFX=  1.000000  1.000000  1.000000  1.000000
 FoFCou: FMM=F IPFlag=           0 FMFlag=      100000 FMFlg1=           0
         NFxFlg=           0 DoJE=T BraDBF=F KetDBF=T FulRan=T
         wScrn=  0.000000 ICntrl=     500 IOpCl=  0 I1Cent=   200000004 NGrid=           0
         NMat0=    1 NMatS0=      1 NMatT0=    0 NMatD0=    1 NMtDS0=    0 NMtDT0=    0
 Petite list used in FoFCou.
 Keep R1 ints in memory in canonical form, NReq=1150581.
 Requested convergence on RMS density matrix=1.00D-08 within 128 cycles.
 Requested convergence on MAX density matrix=1.00D-06.
 Requested convergence on             energy=1.00D-06.
 No special actions if energy rises.
 SCF Done:  E(RHF) =  -117.025259545     A.U. after   11 cycles
            NFock= 11  Conv=0.20D-08     -V/T= 1.9985
 Calling FoFJK, ICntrl=      2127 FMM=F ISym2X=0 I1Cent= 0 IOpClX= 0 NMat=1 NMatS=1 NMatT=0.
 ***** Axes restored to original set *****
 -------------------------------------------------------------------
 Center     Atomic                   Forces (Hartrees/Bohr)
 Number     Number              X              Y              Z
 -------------------------------------------------------------------
      1        6          -0.000480307    0.000436323    0.001233838
      2        6          -0.000723134    0.001959364   -0.003181431
      3        1           0.001437040   -0.000157381    0.000441245
      4        1          -0.000495556    0.000583459    0.001877560
      5        1          -0.000285321   -0.001536595    0.000274114
      6        6           0.000215414   -0.001384102   -0.001212849
      7        1          -0.000608327    0.001906890   -0.000690972
      8        1           0.000800621   -0.001549105    0.000467680
      9        1           0.000139570   -0.000258851    0.000790814
 -------------------------------------------------------------------
 Cartesian Forces:  Max     0.003181431 RMS     0.001174239

 GradGradGradGradGradGradGradGradGradGradGradGradGradGradGradGradGradGrad
 Berny optimization.
 Using GEDIIS/GDIIS optimizer.
 FormGI is forming the generalized inverse of G from B-inverse, IUseBI=4.
 Internal  Forces:  Max     0.003839249 RMS     0.001311883
 Search for a local minimum.
 Step number   2 out of a maximum of  100
 All quantities printed in internal units (Hartrees-Bohrs-Radians)
 Mixed Optimization -- RFO/linear search
 Update second derivatives using D2CorX and points    1    2
 DE= -1.27D-03 DEPred=-1.58D-03 R= 8.05D-01
 TightC=F SS=  1.41D+00  RLast= 1.14D-01 DXNew= 5.0454D-01 3.4141D-01
 Trust test= 8.05D-01 RLast= 1.14D-01 DXMaxT set to 3.41D-01
 ITU=  1  0
 Use linear search instead of GDIIS.
     Eigenvalues ---    0.00854   0.01690   0.02903   0.02904   0.07129
     Eigenvalues ---    0.07171   0.15574   0.16000   0.16000   0.16000
     Eigenvalues ---    0.16000   0.17271   0.22300   0.33538   0.34147
     Eigenvalues ---    0.34321   0.34711   0.35181   0.35273   0.38151
     Eigenvalues ---    0.59347
 RFO step:  Lambda=-8.84372883D-05 EMin= 8.54460406D-03
 Quartic linear search produced a step of -0.15560.
 Iteration  1 RMS(Cart)=  0.01085049 RMS(Int)=  0.00006196
 Iteration  2 RMS(Cart)=  0.00006331 RMS(Int)=  0.00001549
 Iteration  3 RMS(Cart)=  0.00000000 RMS(Int)=  0.00001549
 Variable       Old X    -DE/DX   Delta X   Delta X   Delta X     New X
                                 (Linear)    (Quad)   (Total)
    R1        2.86074  -0.00384  -0.00615  -0.00250  -0.00865   2.85210
    R2        2.04775   0.00117   0.00312  -0.00083   0.00230   2.05004
    R3        2.04610   0.00003   0.00352  -0.00409  -0.00057   2.04553
    R4        2.04673   0.00126   0.00332  -0.00084   0.00248   2.04920
    R5        2.49823   0.00283   0.00484  -0.00156   0.00328   2.50150
    R6        2.03111   0.00143   0.00375  -0.00099   0.00276   2.03386
    R7        2.02938   0.00139   0.00349  -0.00080   0.00269   2.03207
    R8        2.02611   0.00078   0.00397  -0.00284   0.00113   2.02724
    A1        1.94592  -0.00071  -0.00180  -0.00173  -0.00351   1.94241
    A2        1.95508  -0.00243  -0.00580  -0.00597  -0.01173   1.94336
    A3        1.94592  -0.00045  -0.00127  -0.00068  -0.00193   1.94399
    A4        1.86831   0.00161   0.00213   0.00550   0.00767   1.87598
    A5        1.87373   0.00068   0.00561  -0.00304   0.00256   1.87629
    A6        1.87031   0.00158   0.00158   0.00655   0.00817   1.87848
    A7        2.18294  -0.00093  -0.00465   0.00197  -0.00268   2.18026
    A8        2.03736  -0.00110   0.00154  -0.00829  -0.00674   2.03062
    A9        2.06288   0.00203   0.00311   0.00632   0.00942   2.07230
   A10        2.12296   0.00133  -0.00018   0.00724   0.00706   2.13001
   A11        2.12441  -0.00034  -0.00241   0.00111  -0.00130   2.12311
   A12        2.03582  -0.00099   0.00260  -0.00835  -0.00576   2.03006
    D1       -1.12150  -0.00024  -0.00088  -0.01715  -0.01804  -1.13954
    D2        2.01628  -0.00021  -0.00010  -0.01688  -0.01699   1.99929
    D3        3.06836  -0.00014   0.00146  -0.01887  -0.01742   3.05094
    D4       -0.07705  -0.00011   0.00224  -0.01860  -0.01637  -0.09342
    D5        0.97248  -0.00017   0.00416  -0.02267  -0.01848   0.95399
    D6       -2.17293  -0.00014   0.00494  -0.02240  -0.01743  -2.19036
    D7       -0.00694   0.00007   0.00165   0.00011   0.00177  -0.00517
    D8        3.13676   0.00000   0.00083  -0.00079   0.00004   3.13680
    D9        3.13852   0.00004   0.00086  -0.00013   0.00073   3.13925
   D10       -0.00097  -0.00002   0.00004  -0.00103  -0.00100  -0.00196
         Item               Value     Threshold  Converged?
 Maximum Force            0.003839     0.000450     NO 
 RMS     Force            0.001312     0.000300     NO 
 Maximum Displacement     0.022221     0.001800     NO 
 RMS     Displacement     0.010866     0.001200     NO 
 Predicted change in Energy=-8.904941D-05
 GradGradGradGradGradGradGradGradGradGradGradGradGradGradGradGradGradGrad

                          Input orientation:                          
 ---------------------------------------------------------------------
 Center     Atomic      Atomic             Coordinates (Angstroms)
 Number     Number       Type             X           Y           Z
 ---------------------------------------------------------------------
      1          6           0       -0.004924    0.011202   -0.006959
      2          6           0        0.009237   -0.012025    1.502061
      3          1           0        1.002115    0.021574   -0.410239
      4          1           0       -0.514813    0.888982   -0.382739
      5          1           0       -0.509125   -0.859657   -0.411053
      6          6           0        0.474098   -1.007655    2.240242
      7          1           0       -0.390617    0.856092    1.996891
      8          1           0        0.883199   -1.900235    1.801760
      9          1           0        0.462271   -0.966747    3.312167
 ---------------------------------------------------------------------
                    Distance matrix (angstroms):
                    1          2          3          4          5
     1  C    0.000000
     2  C    1.509265   0.000000
     3  H    1.084836   2.154954   0.000000
     4  H    1.082449   2.153814   1.747634   0.000000
     5  H    1.084392   2.155733   1.749404   1.748877   0.000000
     6  C    2.513453   1.323739   2.891914   3.384555   2.831607
     7  H    2.208622   1.076275   2.903515   2.383096   2.959060
     8  H    2.777377   2.102134   2.932649   3.808702   2.813879
     9  H    3.491597   2.096000   3.889025   4.248618   3.849343
                    6          7          8          9
     6  C    0.000000
     7  H    2.068938   0.000000
     8  H    1.075328   3.042700   0.000000
     9  H    1.072770   2.404186   1.824804   0.000000
 Stoichiometry    C3H6
 Framework group  C1[X(C3H6)]
 Deg. of freedom    21
 Full point group                 C1      NOp   1
 Largest Abelian subgroup         C1      NOp   1
 Largest concise Abelian subgroup C1      NOp   1
                         Standard orientation:                         
 ---------------------------------------------------------------------
 Center     Atomic      Atomic             Coordinates (Angstroms)
 Number     Number       Type             X           Y           Z
 ---------------------------------------------------------------------
      1          6           0        1.236779   -0.157646    0.000069
      2          6           0       -0.141296    0.457811   -0.001180
      3          1           0        1.424183   -0.702173    0.919438
      4          1           0        2.005980    0.598267   -0.092784
      5          1           0        1.359578   -0.853876   -0.822178
      6          6           0       -1.275791   -0.224249    0.000256
      7          1           0       -0.184114    1.533234   -0.000744
      8          1           0       -1.295060   -1.299401   -0.002228
      9          1           0       -2.228720    0.268449    0.003626
 ---------------------------------------------------------------------
 Rotational constants (GHZ):     47.2796512      9.3011645      8.1591367
 Standard basis: 6-31G (6D, 7F)
 There are    39 symmetry adapted cartesian basis functions of A   symmetry.
 There are    39 symmetry adapted basis functions of A   symmetry.
    39 basis functions,    90 primitive gaussians,    39 cartesian basis functions
    12 alpha electrons       12 beta electrons
       nuclear repulsion energy        70.9515439772 Hartrees.
 NAtoms=    9 NActive=    9 NUniq=    9 SFac= 1.00D+00 NAtFMM=   60 NAOKFM=F Big=F
 Integral buffers will be    131072 words long.
 Raffenetti 1 integral format.
 Two-electron integral symmetry is turned on.
 One-electron integrals computed using PRISM.
 NBasis=    39 RedAO= T EigKep=  6.91D-03  NBF=    39
 NBsUse=    39 1.00D-06 EigRej= -1.00D+00 NBFU=    39
 Initial guess from the checkpoint file:  "/blue/chm6586/le.chen/hw2/lumo_hf/Gau-62608.chk"
 B after Tr=     0.000000    0.000000    0.000000
         Rot=    0.999995    0.002732   -0.000298    0.001299 Ang=   0.35 deg.
 ExpMin= 1.61D-01 ExpMax= 3.05D+03 ExpMxC= 4.57D+02 IAcc=1 IRadAn=         1 AccDes= 0.00D+00
 Harris functional with IExCor=  205 and IRadAn=       1 diagonalized for initial guess.
 HarFok:  IExCor=  205 AccDes= 0.00D+00 IRadAn=         1 IDoV= 1 UseB2=F ITyADJ=14
 ICtDFT=  3500011 ScaDFX=  1.000000  1.000000  1.000000  1.000000
 FoFCou: FMM=F IPFlag=           0 FMFlag=      100000 FMFlg1=           0
         NFxFlg=           0 DoJE=T BraDBF=F KetDBF=T FulRan=T
         wScrn=  0.000000 ICntrl=     500 IOpCl=  0 I1Cent=   200000004 NGrid=           0
         NMat0=    1 NMatS0=      1 NMatT0=    0 NMatD0=    1 NMtDS0=    0 NMtDT0=    0
 Petite list used in FoFCou.
 Keep R1 ints in memory in canonical form, NReq=1150581.
 Requested convergence on RMS density matrix=1.00D-08 within 128 cycles.
 Requested convergence on MAX density matrix=1.00D-06.
 Requested convergence on             energy=1.00D-06.
 No special actions if energy rises.
 SCF Done:  E(RHF) =  -117.025361988     A.U. after   10 cycles
            NFock= 10  Conv=0.55D-08     -V/T= 1.9985
 Calling FoFJK, ICntrl=      2127 FMM=F ISym2X=0 I1Cent= 0 IOpClX= 0 NMat=1 NMatS=1 NMatT=0.
 ***** Axes restored to original set *****
 -------------------------------------------------------------------
 Center     Atomic                   Forces (Hartrees/Bohr)
 Number     Number              X              Y              Z
 -------------------------------------------------------------------
      1        6          -0.000207280    0.000020674   -0.000092225
      2        6           0.000071659   -0.000258449   -0.000074518
      3        1           0.000242402    0.000214845   -0.000066941
      4        1          -0.000227897    0.000034961    0.000064455
      5        1           0.000157612   -0.000253409   -0.000049506
      6        6          -0.000397329    0.000267819   -0.000396779
      7        1           0.000225002    0.000319368    0.000093981
      8        1           0.000062413   -0.000234772    0.000014059
      9        1           0.000073418   -0.000111039    0.000507474
 -------------------------------------------------------------------
 Cartesian Forces:  Max     0.000507474 RMS     0.000216927

 GradGradGradGradGradGradGradGradGradGradGradGradGradGradGradGradGradGrad
 Berny optimization.
 Using GEDIIS/GDIIS optimizer.
 FormGI is forming the generalized inverse of G from B-inverse, IUseBI=4.
 Internal  Forces:  Max     0.000502030 RMS     0.000168683
 Search for a local minimum.
 Step number   3 out of a maximum of  100
 All quantities printed in internal units (Hartrees-Bohrs-Radians)
 Mixed Optimization -- En-DIIS/RFO-DIIS
 Update second derivatives using D2CorX and points    1    2    3
 DE= -1.02D-04 DEPred=-8.90D-05 R= 1.15D+00
 TightC=F SS=  1.41D+00  RLast= 4.96D-02 DXNew= 5.7418D-01 1.4883D-01
 Trust test= 1.15D+00 RLast= 4.96D-02 DXMaxT set to 3.41D-01
 ITU=  1  1  0
 Use linear search instead of GDIIS.
     Eigenvalues ---    0.00622   0.01700   0.02902   0.02907   0.07189
     Eigenvalues ---    0.07237   0.15440   0.15999   0.16000   0.16000
     Eigenvalues ---    0.16003   0.17814   0.22709   0.34042   0.34174
     Eigenvalues ---    0.34316   0.34916   0.35197   0.35237   0.39140
     Eigenvalues ---    0.60128
 RFO step:  Lambda=-4.11360317D-05 EMin= 6.21976072D-03
 Quartic linear search produced a step of  0.17671.
 Iteration  1 RMS(Cart)=  0.01653421 RMS(Int)=  0.00015052
 Iteration  2 RMS(Cart)=  0.00016226 RMS(Int)=  0.00000186
 Iteration  3 RMS(Cart)=  0.00000001 RMS(Int)=  0.00000186
 Variable       Old X    -DE/DX   Delta X   Delta X   Delta X     New X
                                 (Linear)    (Quad)   (Total)
    R1        2.85210   0.00014  -0.00153   0.00057  -0.00096   2.85114
    R2        2.05004   0.00025   0.00041   0.00068   0.00109   2.05113
    R3        2.04553   0.00011  -0.00010  -0.00011  -0.00021   2.04532
    R4        2.04920   0.00015   0.00044   0.00031   0.00075   2.04995
    R5        2.50150   0.00004   0.00058  -0.00026   0.00032   2.50182
    R6        2.03386   0.00022   0.00049   0.00050   0.00099   2.03485
    R7        2.03207   0.00021   0.00048   0.00051   0.00099   2.03306
    R8        2.02724   0.00050   0.00020   0.00130   0.00150   2.02874
    A1        1.94241  -0.00002  -0.00062  -0.00033  -0.00096   1.94146
    A2        1.94336  -0.00015  -0.00207  -0.00140  -0.00348   1.93988
    A3        1.94399   0.00003  -0.00034   0.00032  -0.00002   1.94396
    A4        1.87598   0.00006   0.00135   0.00059   0.00194   1.87792
    A5        1.87629   0.00000   0.00045  -0.00046  -0.00001   1.87628
    A6        1.87848   0.00009   0.00144   0.00138   0.00282   1.88130
    A7        2.18026   0.00016  -0.00047   0.00124   0.00076   2.18102
    A8        2.03062  -0.00008  -0.00119  -0.00127  -0.00246   2.02816
    A9        2.07230  -0.00007   0.00167   0.00003   0.00170   2.07400
   A10        2.13001   0.00005   0.00125   0.00100   0.00224   2.13226
   A11        2.12311   0.00013  -0.00023   0.00118   0.00095   2.12406
   A12        2.03006  -0.00018  -0.00102  -0.00218  -0.00320   2.02686
    D1       -1.13954  -0.00022  -0.00319  -0.03024  -0.03342  -1.17296
    D2        1.99929  -0.00023  -0.00300  -0.03144  -0.03444   1.96485
    D3        3.05094  -0.00018  -0.00308  -0.02982  -0.03290   3.01804
    D4       -0.09342  -0.00019  -0.00289  -0.03103  -0.03392  -0.12733
    D5        0.95399  -0.00021  -0.00327  -0.03083  -0.03410   0.91989
    D6       -2.19036  -0.00022  -0.00308  -0.03204  -0.03512  -2.22548
    D7       -0.00517  -0.00004   0.00031  -0.00218  -0.00187  -0.00704
    D8        3.13680  -0.00002   0.00001  -0.00133  -0.00132   3.13548
    D9        3.13925  -0.00003   0.00013  -0.00095  -0.00082   3.13843
   D10       -0.00196  -0.00001  -0.00018  -0.00010  -0.00027  -0.00224
         Item               Value     Threshold  Converged?
 Maximum Force            0.000502     0.000450     NO 
 RMS     Force            0.000169     0.000300     YES
 Maximum Displacement     0.041485     0.001800     NO 
 RMS     Displacement     0.016540     0.001200     NO 
 Predicted change in Energy=-2.323336D-05
 GradGradGradGradGradGradGradGradGradGradGradGradGradGradGradGradGradGrad

                          Input orientation:                          
 ---------------------------------------------------------------------
 Center     Atomic      Atomic             Coordinates (Angstroms)
 Number     Number       Type             X           Y           Z
 ---------------------------------------------------------------------
      1          6           0       -0.004247    0.011704   -0.007507
      2          6           0        0.014146   -0.010045    1.500982
      3          1           0        1.002252    0.043527   -0.412559
      4          1           0       -0.534071    0.879278   -0.379069
      5          1           0       -0.490100   -0.870809   -0.409854
      6          6           0        0.469248   -1.009908    2.239823
      7          1           0       -0.373741    0.865205    1.993909
      8          1           0        0.865664   -1.910056    1.803885
      9          1           0        0.462291   -0.967364    3.312522
 ---------------------------------------------------------------------
                    Distance matrix (angstroms):
                    1          2          3          4          5
     1  C    0.000000
     2  C    1.508758   0.000000
     3  H    1.085412   2.154266   0.000000
     4  H    1.082338   2.150820   1.749254   0.000000
     5  H    1.084788   2.155569   1.750180   1.750909   0.000000
     6  C    2.513639   1.323907   2.903265   3.381459   2.821434
     7  H    2.206956   1.076798   2.891297   2.378429   2.967383
     8  H    2.780475   2.104014   2.957662   3.808533   2.796207
     9  H    3.492681   2.097372   3.897394   4.246252   3.843495
                    6          7          8          9
     6  C    0.000000
     7  H    2.070544   0.000000
     8  H    1.075850   3.045375   0.000000
     9  H    1.073565   2.407488   1.824107   0.000000
 Stoichiometry    C3H6
 Framework group  C1[X(C3H6)]
 Deg. of freedom    21
 Full point group                 C1      NOp   1
 Largest Abelian subgroup         C1      NOp   1
 Largest concise Abelian subgroup C1      NOp   1
                         Standard orientation:                         
 ---------------------------------------------------------------------
 Center     Atomic      Atomic             Coordinates (Angstroms)
 Number     Number       Type             X           Y           Z
 ---------------------------------------------------------------------
      1          6           0        1.236877   -0.158248    0.000043
      2          6           0       -0.140550    0.457418   -0.001556
      3          1           0        1.435937   -0.673969    0.934134
      4          1           0        2.002122    0.596636   -0.126472
      5          1           0        1.348128   -0.880590   -0.801587
      6          6           0       -1.275914   -0.223517    0.000377
      7          1           0       -0.180415    1.533478   -0.000842
      8          1           0       -1.298758   -1.299120   -0.003091
      9          1           0       -2.229490    0.269652    0.004669
 ---------------------------------------------------------------------
 Rotational constants (GHZ):     47.2724065      9.3004184      8.1586701
 Standard basis: 6-31G (6D, 7F)
 There are    39 symmetry adapted cartesian basis functions of A   symmetry.
 There are    39 symmetry adapted basis functions of A   symmetry.
    39 basis functions,    90 primitive gaussians,    39 cartesian basis functions
    12 alpha electrons       12 beta electrons
       nuclear repulsion energy        70.9445154585 Hartrees.
 NAtoms=    9 NActive=    9 NUniq=    9 SFac= 1.00D+00 NAtFMM=   60 NAOKFM=F Big=F
 Integral buffers will be    131072 words long.
 Raffenetti 1 integral format.
 Two-electron integral symmetry is turned on.
 One-electron integrals computed using PRISM.
 NBasis=    39 RedAO= T EigKep=  6.90D-03  NBF=    39
 NBsUse=    39 1.00D-06 EigRej= -1.00D+00 NBFU=    39
 Initial guess from the checkpoint file:  "/blue/chm6586/le.chen/hw2/lumo_hf/Gau-62608.chk"
 B after Tr=     0.000000    0.000000    0.000000
         Rot=    0.999985    0.005376   -0.000586    0.000291 Ang=   0.62 deg.
 ExpMin= 1.61D-01 ExpMax= 3.05D+03 ExpMxC= 4.57D+02 IAcc=1 IRadAn=         1 AccDes= 0.00D+00
 Harris functional with IExCor=  205 and IRadAn=       1 diagonalized for initial guess.
 HarFok:  IExCor=  205 AccDes= 0.00D+00 IRadAn=         1 IDoV= 1 UseB2=F ITyADJ=14
 ICtDFT=  3500011 ScaDFX=  1.000000  1.000000  1.000000  1.000000
 FoFCou: FMM=F IPFlag=           0 FMFlag=      100000 FMFlg1=           0
         NFxFlg=           0 DoJE=T BraDBF=F KetDBF=T FulRan=T
         wScrn=  0.000000 ICntrl=     500 IOpCl=  0 I1Cent=   200000004 NGrid=           0
         NMat0=    1 NMatS0=      1 NMatT0=    0 NMatD0=    1 NMtDS0=    0 NMtDT0=    0
 Petite list used in FoFCou.
 Keep R1 ints in memory in canonical form, NReq=1150581.
 Requested convergence on RMS density matrix=1.00D-08 within 128 cycles.
 Requested convergence on MAX density matrix=1.00D-06.
 Requested convergence on             energy=1.00D-06.
 No special actions if energy rises.
 SCF Done:  E(RHF) =  -117.025410324     A.U. after   10 cycles
            NFock= 10  Conv=0.22D-08     -V/T= 1.9986
 Calling FoFJK, ICntrl=      2127 FMM=F ISym2X=0 I1Cent= 0 IOpClX= 0 NMat=1 NMatS=1 NMatT=0.
 ***** Axes restored to original set *****
 -------------------------------------------------------------------
 Center     Atomic                   Forces (Hartrees/Bohr)
 Number     Number              X              Y              Z
 -------------------------------------------------------------------
      1        6          -0.000016221   -0.000377329   -0.000052877
      2        6           0.000099245   -0.000312566    0.000339318
      3        1          -0.000156593    0.000436239   -0.000089206
      4        1          -0.000211000   -0.000118304   -0.000427064
      5        1           0.000307279    0.000133757   -0.000042970
      6        6          -0.000400040    0.000006926    0.000282628
      7        1           0.000533785   -0.000087702    0.000206127
      8        1          -0.000157360    0.000220382   -0.000161977
      9        1           0.000000905    0.000098597   -0.000053979
 -------------------------------------------------------------------
 Cartesian Forces:  Max     0.000533785 RMS     0.000245947

 GradGradGradGradGradGradGradGradGradGradGradGradGradGradGradGradGradGrad
 Berny optimization.
 Using GEDIIS/GDIIS optimizer.
 FormGI is forming the generalized inverse of G from B-inverse, IUseBI=4.
 Internal  Forces:  Max     0.000614013 RMS     0.000258591
 Search for a local minimum.
 Step number   4 out of a maximum of  100
 All quantities printed in internal units (Hartrees-Bohrs-Radians)
 Mixed Optimization -- En-DIIS/RFO-DIIS
 Swapping is turned off.
 Update second derivatives using D2CorX and points    1    2    3    4
 DE= -4.83D-05 DEPred=-2.32D-05 R= 2.08D+00
 TightC=F SS=  1.41D+00  RLast= 8.36D-02 DXNew= 5.7418D-01 2.5092D-01
 Trust test= 2.08D+00 RLast= 8.36D-02 DXMaxT set to 3.41D-01
 ITU=  1  1  1  0
     Eigenvalues ---   -0.18498   0.00110   0.01701   0.02900   0.02919
     Eigenvalues ---    0.07210   0.07253   0.15898   0.15997   0.16000
     Eigenvalues ---    0.16000   0.16443   0.22329   0.26137   0.34035
     Eigenvalues ---    0.34300   0.34446   0.34934   0.35234   0.37190
     Eigenvalues ---    0.56614
 Use linear search instead of GDIIS.
 RFO step:  Lambda=-1.84989597D-01 EMin=-1.84983116D-01
 I=     1 Eig=   -1.85D-01 Dot1=  6.57D-04
 I=     1 Stepn=  6.00D-01 RXN=   6.00D-01 EDone=F
 Mixed    1 eigenvectors in step.  Raw Step.Grad=  6.57D-04.
 RFO eigenvector is Hessian eigenvector with negative curvature.
 Taking step of  6.00D-01 in eigenvector direction(s).  Step.Grad=  1.38D-04.
 Skip linear search -- no minimum in search direction.
 Maximum step size (   0.341) exceeded in Quadratic search.
    -- Step size not scaled.
 Iteration  1 RMS(Cart)=  0.13633862 RMS(Int)=  0.01777565
 Iteration  2 RMS(Cart)=  0.02077968 RMS(Int)=  0.00191704
 Iteration  3 RMS(Cart)=  0.00061549 RMS(Int)=  0.00183438
 Iteration  4 RMS(Cart)=  0.00000078 RMS(Int)=  0.00183438
 Variable       Old X    -DE/DX   Delta X   Delta X   Delta X     New X
                                 (Linear)    (Quad)   (Total)
    R1        2.85114   0.00061   0.00000   0.08785   0.08785   2.93899
    R2        2.05113  -0.00010   0.00000  -0.11960  -0.11960   1.93153
    R3        2.04532   0.00016   0.00000  -0.00039  -0.00039   2.04493
    R4        2.04995  -0.00023   0.00000  -0.12170  -0.12170   1.92825
    R5        2.50182  -0.00040   0.00000  -0.07857  -0.07857   2.42325
    R6        2.03485  -0.00017   0.00000  -0.12401  -0.12401   1.91084
    R7        2.03306  -0.00018   0.00000  -0.12457  -0.12457   1.90849
    R8        2.02874  -0.00005   0.00000  -0.21131  -0.21131   1.81743
    A1        1.94146   0.00008   0.00000   0.03369   0.03027   1.97172
    A2        1.93988   0.00048   0.00000   0.27509   0.26971   2.20959
    A3        1.94396   0.00009   0.00000   0.01910   0.01623   1.96020
    A4        1.87792  -0.00034   0.00000  -0.17105  -0.17602   1.70190
    A5        1.87628  -0.00007   0.00000  -0.01863  -0.01843   1.85785
    A6        1.88130  -0.00028   0.00000  -0.15934  -0.16351   1.71779
    A7        2.18102   0.00014   0.00000  -0.03812  -0.03812   2.14291
    A8        2.02816   0.00026   0.00000   0.14628   0.14628   2.17443
    A9        2.07400  -0.00040   0.00000  -0.10816  -0.10816   1.96584
   A10        2.13226  -0.00029   0.00000  -0.13650  -0.13655   1.99571
   A11        2.12406   0.00005   0.00000  -0.06184  -0.06189   2.06217
   A12        2.02686   0.00024   0.00000   0.19835   0.19831   2.22517
    D1       -1.17296  -0.00030   0.00000  -0.05152  -0.04980  -1.22276
    D2        1.96485  -0.00032   0.00000  -0.05295  -0.05129   1.91356
    D3        3.01804  -0.00024   0.00000  -0.04218  -0.04241   2.97563
    D4       -0.12733  -0.00026   0.00000  -0.04361  -0.04390  -0.17124
    D5        0.91989  -0.00027   0.00000  -0.03953  -0.04092   0.87897
    D6       -2.22548  -0.00029   0.00000  -0.04095  -0.04242  -2.26790
    D7       -0.00704  -0.00006   0.00000  -0.00005   0.00001  -0.00703
    D8        3.13548  -0.00005   0.00000  -0.01708  -0.01703   3.11846
    D9        3.13843  -0.00003   0.00000   0.00091   0.00085   3.13927
   D10       -0.00224  -0.00002   0.00000  -0.01613  -0.01619  -0.01843
         Item               Value     Threshold  Converged?
 Maximum Force            0.000614     0.000450     NO 
 RMS     Force            0.000259     0.000300     YES
 Maximum Displacement     0.416046     0.001800     NO 
 RMS     Displacement     0.149107     0.001200     NO 
 Predicted change in Energy=-3.387109D-02
 GradGradGradGradGradGradGradGradGradGradGradGradGradGradGradGradGradGrad

                          Input orientation:                          
 ---------------------------------------------------------------------
 Center     Atomic      Atomic             Coordinates (Angstroms)
 Number     Number       Type             X           Y           Z
 ---------------------------------------------------------------------
      1          6           0       -0.004485    0.009951    0.031319
      2          6           0        0.018913   -0.005923    1.586308
      3          1           0        0.928858    0.069314   -0.381091
      4          1           0       -0.484872    0.746592   -0.599231
      5          1           0       -0.439721   -0.826771   -0.358113
      6          6           0        0.455775   -1.003094    2.263931
      7          1           0       -0.297667    0.754437    2.172910
      8          1           0        0.777059   -1.778974    1.702912
      9          1           0        0.457581   -0.934000    3.223189
 ---------------------------------------------------------------------
                    Distance matrix (angstroms):
                    1          2          3          4          5
     1  C    0.000000
     2  C    1.555246   0.000000
     3  H    1.022122   2.168944   0.000000
     4  H    1.082130   2.365726   1.582695   0.000000
     5  H    1.020388   2.159840   1.636003   1.592372   0.000000
     6  C    2.494525   1.282330   2.893096   3.484812   2.776350
     7  H    2.286182   1.011174   2.914906   2.778466   2.987721
     8  H    2.570075   1.931861   2.789673   3.642913   2.575862
     9  H    3.360444   1.932132   3.770885   4.280596   3.693558
                    6          7          8          9
     6  C    0.000000
     7  H    1.914386   0.000000
     8  H    1.009928   2.791792   0.000000
     9  H    0.961745   2.127041   1.768414   0.000000
 Stoichiometry    C3H6
 Framework group  C1[X(C3H6)]
 Deg. of freedom    21
 Full point group                 C1      NOp   1
 Largest Abelian subgroup         C1      NOp   1
 Largest concise Abelian subgroup C1      NOp   1
                         Standard orientation:                         
 ---------------------------------------------------------------------
 Center     Atomic      Atomic             Coordinates (Angstroms)
 Number     Number       Type             X           Y           Z
 ---------------------------------------------------------------------
      1          6           0        1.233280   -0.109983    0.000800
      2          6           0       -0.208938    0.472039   -0.006100
      3          1           0        1.482323   -0.548261    0.889970
      4          1           0        2.152374    0.441682   -0.147320
      5          1           0        1.367739   -0.820460   -0.719155
      6          6           0       -1.256242   -0.267883    0.000221
      7          1           0       -0.429654    1.458815   -0.011510
      8          1           0       -1.065341   -1.259599    0.003581
      9          1           0       -2.116045    0.162786    0.014910
 ---------------------------------------------------------------------
 Rotational constants (GHZ):     50.7700002      9.4233515      8.2984286
 Standard basis: 6-31G (6D, 7F)
 There are    39 symmetry adapted cartesian basis functions of A   symmetry.
 There are    39 symmetry adapted basis functions of A   symmetry.
    39 basis functions,    90 primitive gaussians,    39 cartesian basis functions
    12 alpha electrons       12 beta electrons
       nuclear repulsion energy        72.6463271354 Hartrees.
 NAtoms=    9 NActive=    9 NUniq=    9 SFac= 1.00D+00 NAtFMM=   60 NAOKFM=F Big=F
 Integral buffers will be    131072 words long.
 Raffenetti 1 integral format.
 Two-electron integral symmetry is turned on.
 One-electron integrals computed using PRISM.
 NBasis=    39 RedAO= T EigKep=  5.87D-03  NBF=    39
 NBsUse=    39 1.00D-06 EigRej= -1.00D+00 NBFU=    39
 Initial guess from the checkpoint file:  "/blue/chm6586/le.chen/hw2/lumo_hf/Gau-62608.chk"
 B after Tr=     0.000000    0.000000    0.000000
         Rot=    0.999734    0.010533   -0.000317   -0.020531 Ang=   2.64 deg.
 ExpMin= 1.61D-01 ExpMax= 3.05D+03 ExpMxC= 4.57D+02 IAcc=1 IRadAn=         1 AccDes= 0.00D+00
 Harris functional with IExCor=  205 and IRadAn=       1 diagonalized for initial guess.
 HarFok:  IExCor=  205 AccDes= 0.00D+00 IRadAn=         1 IDoV= 1 UseB2=F ITyADJ=14
 ICtDFT=  3500011 ScaDFX=  1.000000  1.000000  1.000000  1.000000
 FoFCou: FMM=F IPFlag=           0 FMFlag=      100000 FMFlg1=           0
         NFxFlg=           0 DoJE=T BraDBF=F KetDBF=T FulRan=T
         wScrn=  0.000000 ICntrl=     500 IOpCl=  0 I1Cent=   200000004 NGrid=           0
         NMat0=    1 NMatS0=      1 NMatT0=    0 NMatD0=    1 NMtDS0=    0 NMtDT0=    0
 Petite list used in FoFCou.
 Keep R1 ints in memory in canonical form, NReq=1150682.
 Requested convergence on RMS density matrix=1.00D-08 within 128 cycles.
 Requested convergence on MAX density matrix=1.00D-06.
 Requested convergence on             energy=1.00D-06.
 No special actions if energy rises.
 SCF Done:  E(RHF) =  -116.978764360     A.U. after   11 cycles
            NFock= 11  Conv=0.77D-08     -V/T= 1.9925
 Calling FoFJK, ICntrl=      2127 FMM=F ISym2X=0 I1Cent= 0 IOpClX= 0 NMat=1 NMatS=1 NMatT=0.
 ***** Axes restored to original set *****
 -------------------------------------------------------------------
 Center     Atomic                   Forces (Hartrees/Bohr)
 Number     Number              X              Y              Z
 -------------------------------------------------------------------
      1        6          -0.019015428    0.033203375    0.027641376
      2        6          -0.011626555    0.018318310   -0.077730073
      3        1           0.058121674   -0.004783258   -0.008397698
      4        1          -0.015154742    0.021684719    0.026206925
      5        1          -0.019442786   -0.055512897   -0.008748179
      6        6           0.000424839   -0.005295185   -0.077937812
      7        1          -0.023896875    0.058360621    0.015090684
      8        1           0.024399132   -0.058375117   -0.012105518
      9        1           0.006190741   -0.007600568    0.115980296
 -------------------------------------------------------------------
 Cartesian Forces:  Max     0.115980296 RMS     0.040888090

 GradGradGradGradGradGradGradGradGradGradGradGradGradGradGradGradGradGrad
 Berny optimization.
 Using GEDIIS/GDIIS optimizer.
 FormGI is forming the generalized inverse of G from B-inverse, IUseBI=4.
 Internal  Forces:  Max     0.115145988 RMS     0.036645469
 Search for a local minimum.
 Step number   5 out of a maximum of  100
 All quantities printed in internal units (Hartrees-Bohrs-Radians)
 Mixed Optimization -- RFO/linear search
 Update second derivatives using D2CorX and points    1    2    3    5    4
 ITU=  0  1  1  1  0
 Use linear search instead of GDIIS.
     Eigenvalues ---   -0.00417   0.01563   0.02860   0.02901   0.05157
     Eigenvalues ---    0.05337   0.08828   0.15363   0.15997   0.16000
     Eigenvalues ---    0.16003   0.16485   0.19676   0.29022   0.34300
     Eigenvalues ---    0.34412   0.34549   0.35010   0.35246   0.44620
     Eigenvalues ---    0.60766
 RFO step:  Lambda=-4.29794019D-03 EMin=-4.17220717D-03
 I=     1 Eig=   -4.17D-03 Dot1= -4.41D-04
 I=     1 Stepn= -6.00D-01 RXN=   6.00D-01 EDone=F
 Mixed    1 eigenvectors in step.  Raw Step.Grad=  4.41D-04.
 RFO eigenvector is Hessian eigenvector with negative curvature.
 Taking step of  6.00D-01 in eigenvector direction(s).  Step.Grad= -6.93D-05.
 Quartic linear search produced a step of -0.99249.
 Iteration  1 RMS(Cart)=  0.16701088 RMS(Int)=  0.02381255
 Iteration  2 RMS(Cart)=  0.02826047 RMS(Int)=  0.00092313
 Iteration  3 RMS(Cart)=  0.00079145 RMS(Int)=  0.00061863
 Iteration  4 RMS(Cart)=  0.00000103 RMS(Int)=  0.00061863
 Iteration  5 RMS(Cart)=  0.00000000 RMS(Int)=  0.00061863
 Variable       Old X    -DE/DX   Delta X   Delta X   Delta X     New X
                                 (Linear)    (Quad)   (Total)
    R1        2.93899  -0.03682  -0.08719   0.02829  -0.05890   2.88009
    R2        1.93153   0.05618   0.11870   0.00218   0.12088   2.05241
    R3        2.04493   0.00622   0.00039  -0.01391  -0.01352   2.03141
    R4        1.92825   0.05715   0.12078  -0.00248   0.11830   2.04655
    R5        2.42325   0.07969   0.07798  -0.01711   0.06087   2.48412
    R6        1.91084   0.06012   0.12308  -0.00201   0.12107   2.03191
    R7        1.90849   0.05933   0.12364  -0.00083   0.12281   2.03129
    R8        1.81743   0.11515   0.20972   0.01236   0.22208   2.03951
    A1        1.97172  -0.00637  -0.03004   0.00294  -0.02689   1.94484
    A2        2.20959  -0.04154  -0.26768  -0.00024  -0.26656   1.94302
    A3        1.96020  -0.00461  -0.01611   0.00753  -0.00755   1.95265
    A4        1.70190   0.02928   0.17470   0.00040   0.17561   1.87751
    A5        1.85785   0.00575   0.01830  -0.02604  -0.00786   1.84999
    A6        1.71779   0.02769   0.16228   0.00954   0.17381   1.89160
    A7        2.14291  -0.00397   0.03783   0.03402   0.07184   2.21474
    A8        2.17443  -0.02122  -0.14518  -0.02188  -0.16706   2.00737
    A9        1.96584   0.02519   0.10735  -0.01221   0.09511   2.06095
   A10        1.99571   0.02163   0.13552   0.01310   0.14856   2.14427
   A11        2.06217   0.00464   0.06143   0.02490   0.08625   2.14843
   A12        2.22517  -0.02624  -0.19682  -0.03784  -0.23472   1.99045
    D1       -1.22276   0.00005   0.04942  -0.22486  -0.17607  -1.39882
    D2        1.91356   0.00006   0.05091  -0.23923  -0.18818   1.72538
    D3        2.97563  -0.00045   0.04209  -0.22847  -0.18734   2.78830
    D4       -0.17124  -0.00044   0.04358  -0.24284  -0.19945  -0.37069
    D5        0.87897  -0.00043   0.04061  -0.25121  -0.21016   0.66881
    D6       -2.26790  -0.00042   0.04210  -0.26557  -0.22227  -2.49017
    D7       -0.00703  -0.00050  -0.00001  -0.02578  -0.02635  -0.03338
    D8        3.11846   0.00065   0.01690  -0.01634   0.00000   3.11845
    D9        3.13927  -0.00039  -0.00084  -0.01292  -0.01320   3.12608
   D10       -0.01843   0.00077   0.01607  -0.00348   0.01315  -0.00527
         Item               Value     Threshold  Converged?
 Maximum Force            0.115146     0.000450     NO 
 RMS     Force            0.036645     0.000300     NO 
 Maximum Displacement     0.428231     0.001800     NO 
 RMS     Displacement     0.182304     0.001200     NO 
 Predicted change in Energy=-3.050768D-03
 GradGradGradGradGradGradGradGradGradGradGradGradGradGradGradGradGradGrad

                          Input orientation:                          
 ---------------------------------------------------------------------
 Center     Atomic      Atomic             Coordinates (Angstroms)
 Number     Number       Type             X           Y           Z
 ---------------------------------------------------------------------
      1          6           0       -0.000472    0.024385   -0.021913
      2          6           0        0.048760   -0.013614    1.500896
      3          1           0        0.982025    0.209446   -0.446225
      4          1           0       -0.656829    0.800123   -0.372621
      5          1           0       -0.332769   -0.918387   -0.438596
      6          6           0        0.429965   -1.021903    2.253261
      7          1           0       -0.250260    0.896965    1.988315
      8          1           0        0.730752   -1.970952    1.847954
      9          1           0        0.460269   -0.974532    3.331059
 ---------------------------------------------------------------------
                    Distance matrix (angstroms):
                    1          2          3          4          5
     1  C    0.000000
     2  C    1.524079   0.000000
     3  H    1.086089   2.170719   0.000000
     4  H    1.074974   2.161039   1.743605   0.000000
     5  H    1.082990   2.173893   1.732268   1.750041   0.000000
     6  C    2.540947   1.314540   3.017982   3.375819   2.799745
     7  H    2.205631   1.075242   2.813929   2.397644   3.031866
     8  H    2.830630   2.101603   3.174986   3.812505   2.732633
     9  H    3.528816   2.107652   3.992732   4.256119   3.852578
                    6          7          8          9
     6  C    0.000000
     7  H    2.053036   0.000000
     8  H    1.074915   3.034310   0.000000
     9  H    1.079264   2.410459   1.807101   0.000000
 Stoichiometry    C3H6
 Framework group  C1[X(C3H6)]
 Deg. of freedom    21
 Full point group                 C1      NOp   1
 Largest Abelian subgroup         C1      NOp   1
 Largest concise Abelian subgroup C1      NOp   1
                         Standard orientation:                         
 ---------------------------------------------------------------------
 Center     Atomic      Atomic             Coordinates (Angstroms)
 Number     Number       Type             X           Y           Z
 ---------------------------------------------------------------------
      1          6           0        1.254545   -0.151594   -0.001003
      2          6           0       -0.148807    0.442876   -0.005693
      3          1           0        1.553322   -0.455789    0.997891
      4          1           0        1.980707    0.557519   -0.355146
      5          1           0        1.318051   -1.041167   -0.615407
      6          6           0       -1.285552   -0.217254    0.001840
      7          1           0       -0.187413    1.517406    0.000622
      8          1           0       -1.336681   -1.290776   -0.017597
      9          1           0       -2.249103    0.268640    0.018769
 ---------------------------------------------------------------------
 Rotational constants (GHZ):     48.6327804      9.0991546      8.0338523
 Standard basis: 6-31G (6D, 7F)
 There are    39 symmetry adapted cartesian basis functions of A   symmetry.
 There are    39 symmetry adapted basis functions of A   symmetry.
    39 basis functions,    90 primitive gaussians,    39 cartesian basis functions
    12 alpha electrons       12 beta electrons
       nuclear repulsion energy        70.7648794318 Hartrees.
 NAtoms=    9 NActive=    9 NUniq=    9 SFac= 1.00D+00 NAtFMM=   60 NAOKFM=F Big=F
 Integral buffers will be    131072 words long.
 Raffenetti 1 integral format.
 Two-electron integral symmetry is turned on.
 One-electron integrals computed using PRISM.
 NBasis=    39 RedAO= T EigKep=  6.76D-03  NBF=    39
 NBsUse=    39 1.00D-06 EigRej= -1.00D+00 NBFU=    39
 Lowest energy guess from the checkpoint file:  "/blue/chm6586/le.chen/hw2/lumo_hf/Gau-62608.chk"
 B after Tr=     0.000000    0.000000    0.000000
         Rot=    0.999266    0.038097   -0.003959   -0.001033 Ang=   4.39 deg.
 B after Tr=     0.000000    0.000000    0.000000
         Rot=    0.999492    0.024925   -0.003940    0.019450 Ang=   3.65 deg.
 Keep R1 ints in memory in canonical form, NReq=1150566.
 Requested convergence on RMS density matrix=1.00D-08 within 128 cycles.
 Requested convergence on MAX density matrix=1.00D-06.
 Requested convergence on             energy=1.00D-06.
 No special actions if energy rises.
 SCF Done:  E(RHF) =  -117.025409193     A.U. after   11 cycles
            NFock= 11  Conv=0.62D-08     -V/T= 1.9986
 Calling FoFJK, ICntrl=      2127 FMM=F ISym2X=0 I1Cent= 0 IOpClX= 0 NMat=1 NMatS=1 NMatT=0.
 ***** Axes restored to original set *****
 -------------------------------------------------------------------
 Center     Atomic                   Forces (Hartrees/Bohr)
 Number     Number              X              Y              Z
 -------------------------------------------------------------------
      1        6           0.006199356   -0.008744335    0.009204106
      2        6          -0.003934755    0.013275353   -0.013332154
      3        1           0.000629660    0.002693212    0.002038472
      4        1          -0.004052469    0.003393194   -0.000961139
      5        1          -0.001967801   -0.001153816    0.001204441
      6        6           0.003857144   -0.015203260    0.008705815
      7        1           0.000428922    0.002065673    0.000289863
      8        1           0.000380901    0.000025097   -0.002929695
      9        1          -0.001540958    0.003648883   -0.004219708
 -------------------------------------------------------------------
 Cartesian Forces:  Max     0.015203260 RMS     0.006039870

 GradGradGradGradGradGradGradGradGradGradGradGradGradGradGradGradGradGrad
 Berny optimization.
 Using GEDIIS/GDIIS optimizer.
 FormGI is forming the generalized inverse of G from B-inverse, IUseBI=4.
 Internal  Forces:  Max     0.011597475 RMS     0.003772180
 Search for a local minimum.
 Step number   6 out of a maximum of  100
 All quantities printed in internal units (Hartrees-Bohrs-Radians)
 Mixed Optimization -- RFO/linear search
 Update second derivatives using D2CorX and points    1    2    3    5    6
                                                      4
 ITU=  0  0  1  1  1  0
 Use linear search instead of GDIIS.
 Energy rises -- skip Quadratic/GDIIS search.
 Quartic linear search produced a step of -0.47812.
 Iteration  1 RMS(Cart)=  0.05744435 RMS(Int)=  0.00181050
 Iteration  2 RMS(Cart)=  0.00195554 RMS(Int)=  0.00000706
 Iteration  3 RMS(Cart)=  0.00000236 RMS(Int)=  0.00000682
 Iteration  4 RMS(Cart)=  0.00000000 RMS(Int)=  0.00000682
 Variable       Old X    -DE/DX   Delta X   Delta X   Delta X     New X
                                 (Linear)    (Quad)   (Total)
    R1        2.88009  -0.01160  -0.01384   0.00000  -0.01384   2.86625
    R2        2.05241   0.00023  -0.00061   0.00000  -0.00061   2.05180
    R3        2.03141   0.00524   0.00665   0.00000   0.00665   2.03806
    R4        2.04655   0.00114   0.00162   0.00000   0.00162   2.04818
    R5        2.48412   0.01052   0.00846   0.00000   0.00846   2.49258
    R6        2.03191   0.00176   0.00141   0.00000   0.00141   2.03332
    R7        2.03129   0.00119   0.00085   0.00000   0.00085   2.03214
    R8        2.03951  -0.00410  -0.00515   0.00000  -0.00515   2.03436
    A1        1.94484  -0.00226  -0.00162   0.00000  -0.00162   1.94322
    A2        1.94302  -0.00081  -0.00151   0.00000  -0.00149   1.94153
    A3        1.95265  -0.00146  -0.00415   0.00000  -0.00414   1.94851
    A4        1.87751   0.00097   0.00020   0.00000   0.00020   1.87771
    A5        1.84999   0.00341   0.01257   0.00000   0.01257   1.86256
    A6        1.89160   0.00048  -0.00493   0.00000  -0.00490   1.88670
    A7        2.21474  -0.00676  -0.01612   0.00000  -0.01612   2.19863
    A8        2.00737   0.00283   0.00994   0.00000   0.00995   2.01731
    A9        2.06095   0.00393   0.00624   0.00000   0.00625   2.06720
   A10        2.14427  -0.00082  -0.00574   0.00000  -0.00574   2.13853
   A11        2.14843  -0.00376  -0.01165   0.00000  -0.01165   2.13678
   A12        1.99045   0.00458   0.01741   0.00000   0.01741   2.00786
    D1       -1.39882  -0.00160   0.10799   0.00000   0.10799  -1.29083
    D2        1.72538  -0.00144   0.11450   0.00000   0.11449   1.83987
    D3        2.78830  -0.00075   0.10985   0.00000   0.10984   2.89814
    D4       -0.37069  -0.00059   0.11635   0.00000   0.11634  -0.25434
    D5        0.66881   0.00023   0.12005   0.00000   0.12006   0.78887
    D6       -2.49017   0.00039   0.12656   0.00000   0.12656  -2.36361
    D7       -0.03338   0.00049   0.01259   0.00000   0.01260  -0.02078
    D8        3.11845   0.00017   0.00814   0.00000   0.00814   3.12660
    D9        3.12608   0.00034   0.00590   0.00000   0.00590   3.13198
   D10       -0.00527   0.00002   0.00145   0.00000   0.00145  -0.00382
         Item               Value     Threshold  Converged?
 Maximum Force            0.011597     0.000450     NO 
 RMS     Force            0.003772     0.000300     NO 
 Maximum Displacement     0.143824     0.001800     NO 
 RMS     Displacement     0.057517     0.001200     NO 
 Predicted change in Energy=-1.395804D-04
 GradGradGradGradGradGradGradGradGradGradGradGradGradGradGradGradGradGrad

                          Input orientation:                          
 ---------------------------------------------------------------------
 Center     Atomic      Atomic             Coordinates (Angstroms)
 Number     Number       Type             X           Y           Z
 ---------------------------------------------------------------------
      1          6           0        0.000185    0.019499   -0.015099
      2          6           0        0.030848   -0.011971    1.501018
      3          1           0        0.997835    0.133337   -0.428162
      4          1           0       -0.597921    0.840809   -0.376860
      5          1           0       -0.404454   -0.898260   -0.425849
      6          6           0        0.446556   -1.017325    2.246847
      7          1           0       -0.313637    0.881691    1.991369
      8          1           0        0.796039   -1.943351    1.826442
      9          1           0        0.455992   -0.972897    3.322427
 ---------------------------------------------------------------------
                    Distance matrix (angstroms):
                    1          2          3          4          5
     1  C    0.000000
     2  C    1.516754   0.000000
     3  H    1.085766   2.162849   0.000000
     4  H    1.078495   2.156156   1.746306   0.000000
     5  H    1.083849   2.165136   1.740866   1.750483   0.000000
     6  C    2.527973   1.319019   2.963714   3.380448   2.807436
     7  H    2.206303   1.075986   2.852039   2.385581   3.003235
     8  H    2.806677   2.102772   3.071904   3.814343   2.757937
     9  H    3.511651   2.102774   3.947691   4.252645   3.846494
                    6          7          8          9
     6  C    0.000000
     7  H    2.061413   0.000000
     8  H    1.075362   3.039646   0.000000
     9  H    1.076539   2.409054   1.815319   0.000000
 Stoichiometry    C3H6
 Framework group  C1[X(C3H6)]
 Deg. of freedom    21
 Full point group                 C1      NOp   1
 Largest Abelian subgroup         C1      NOp   1
 Largest concise Abelian subgroup C1      NOp   1
                         Standard orientation:                         
 ---------------------------------------------------------------------
 Center     Atomic      Atomic             Coordinates (Angstroms)
 Number     Number       Type             X           Y           Z
 ---------------------------------------------------------------------
      1          6           0        1.246175   -0.154652   -0.000307
      2          6           0       -0.144883    0.449900   -0.003875
      3          1           0        1.497545   -0.561722    0.974370
      4          1           0        1.993288    0.582647   -0.248023
      5          1           0        1.329505   -0.969943   -0.709593
      6          6           0       -1.280945   -0.220285    0.001224
      7          1           0       -0.184208    1.525163   -0.000691
      8          1           0       -1.318410   -1.294934   -0.010206
      9          1           0       -2.239803    0.269013    0.011889
 ---------------------------------------------------------------------
 Rotational constants (GHZ):     47.9705476      9.1945428      8.0929417
 Standard basis: 6-31G (6D, 7F)
 There are    39 symmetry adapted cartesian basis functions of A   symmetry.
 There are    39 symmetry adapted basis functions of A   symmetry.
    39 basis functions,    90 primitive gaussians,    39 cartesian basis functions
    12 alpha electrons       12 beta electrons
       nuclear repulsion energy        70.8492146584 Hartrees.
 NAtoms=    9 NActive=    9 NUniq=    9 SFac= 1.00D+00 NAtFMM=   60 NAOKFM=F Big=F
 Integral buffers will be    131072 words long.
 Raffenetti 1 integral format.
 Two-electron integral symmetry is turned on.
 One-electron integrals computed using PRISM.
 NBasis=    39 RedAO= T EigKep=  6.86D-03  NBF=    39
 NBsUse=    39 1.00D-06 EigRej= -1.00D+00 NBFU=    39
 Lowest energy guess from the checkpoint file:  "/blue/chm6586/le.chen/hw2/lumo_hf/Gau-62608.chk"
 B after Tr=     0.000000    0.000000    0.000000
         Rot=    0.999798    0.020003   -0.002112   -0.000558 Ang=   2.31 deg.
 B after Tr=     0.000000    0.000000    0.000000
         Rot=    0.999833   -0.018166    0.001863    0.000480 Ang=  -2.09 deg.
 Keep R1 ints in memory in canonical form, NReq=1150566.
 Requested convergence on RMS density matrix=1.00D-08 within 128 cycles.
 Requested convergence on MAX density matrix=1.00D-06.
 Requested convergence on             energy=1.00D-06.
 No special actions if energy rises.
[...]
 Rotational constants (GHZ):     47.5714706      9.3250823      8.1848449
 Standard basis: 6-31G (6D, 7F)
 There are    39 symmetry adapted cartesian basis functions of A   symmetry.
 There are    39 symmetry adapted basis functions of A   symmetry.
    39 basis functions,    90 primitive gaussians,    39 cartesian basis functions
    12 alpha electrons       12 beta electrons
       nuclear repulsion energy        71.0512379422 Hartrees.
 NAtoms=    9 NActive=    9 NUniq=    9 SFac= 1.00D+00 NAtFMM=   60 NAOKFM=F Big=F
 Integral buffers will be    131072 words long.
 Raffenetti 1 integral format.
 Two-electron integral symmetry is turned on.
 One-electron integrals computed using PRISM.
 NBasis=    39 RedAO= T EigKep=  6.12D-03  NBF=    39
 NBsUse=    39 1.00D-06 EigRej= -1.00D+00 NBFU=    39
 Initial guess from the checkpoint file:  "/blue/chm6586/le.chen/hw2/lumo_hf/Gau-62608.chk"
 B after Tr=     0.000000    0.000000    0.000000
         Rot=    1.000000    0.000236   -0.000027    0.000023 Ang=   0.03 deg.
 Keep R1 ints in memory in canonical form, NReq=1150628.
 Requested convergence on RMS density matrix=1.00D-08 within 128 cycles.
 Requested convergence on MAX density matrix=1.00D-06.
 Requested convergence on             energy=1.00D-06.
 No special actions if energy rises.
 SCF Done:  E(RHF) =  -117.028276430     A.U. after    8 cycles
            NFock=  8  Conv=0.29D-08     -V/T= 1.9986
 Calling FoFJK, ICntrl=      2127 FMM=F ISym2X=0 I1Cent= 0 IOpClX= 0 NMat=1 NMatS=1 NMatT=0.
 ***** Axes restored to original set *****
 -------------------------------------------------------------------
 Center     Atomic                   Forces (Hartrees/Bohr)
 Number     Number              X              Y              Z
 -------------------------------------------------------------------
      1        6           0.000014818   -0.000011007   -0.000004158
      2        6           0.000001794    0.000006279    0.000014687
      3        1          -0.000009067   -0.000003100   -0.000000509
      4        1           0.000000981   -0.000001460   -0.000007137
      5        1          -0.000007636    0.000007184    0.000000840
      6        6           0.000016904    0.000001612    0.000012752
      7        1          -0.000003219   -0.000013064    0.000006555
      8        1          -0.000007541    0.000008327   -0.000007104
      9        1          -0.000007034    0.000005229   -0.000015926
 -------------------------------------------------------------------
 Cartesian Forces:  Max     0.000016904 RMS     0.000008725

 GradGradGradGradGradGradGradGradGradGradGradGradGradGradGradGradGradGrad
 Berny optimization.
 Using GEDIIS/GDIIS optimizer.
 FormGI is forming the generalized inverse of G from B-inverse, IUseBI=4.
 Internal  Forces:  Max     0.000017900 RMS     0.000008061
 Search for a local minimum.
 Step number  18 out of a maximum of  100
 All quantities printed in internal units (Hartrees-Bohrs-Radians)
 Mixed Optimization -- En-DIIS/RFO-DIIS
 Swapping is turned off.
 Update second derivatives using D2CorX and points   13   14   15   16   17
                                                     18
 DE= -1.86D-08 DEPred=-5.05D-08 R= 3.69D-01
 Trust test= 3.69D-01 RLast= 4.10D-03 DXMaxT set to 6.73D-01
 ITU=  0  0  0  1  1  1  1  0 -1 -1  1  0  0  0  1  1  1  0
     Eigenvalues ---    0.00219   0.01910   0.03206   0.04992   0.07023
     Eigenvalues ---    0.07309   0.13643   0.15690   0.15874   0.16221
     Eigenvalues ---    0.16811   0.17470   0.21737   0.34038   0.34460
     Eigenvalues ---    0.34630   0.35167   0.35399   0.39154   0.40630
     Eigenvalues ---    0.60334
 En-DIIS/RFO-DIIS IScMMF=        0 using points:    18   17   16   15   14
 RFO step:  Lambda=-4.24053457D-09.
 DidBck=T Rises=F RFO-DIIS coefs:    0.66258    0.32681    0.01093   -0.00090    0.00058
 Iteration  1 RMS(Cart)=  0.00026094 RMS(Int)=  0.00000004
 Iteration  2 RMS(Cart)=  0.00000004 RMS(Int)=  0.00000001
 Variable       Old X    -DE/DX   Delta X   Delta X   Delta X     New X
                                 (Linear)    (Quad)   (Total)
    R1        2.83749   0.00001   0.00000   0.00002   0.00002   2.83751
    R2        2.05218  -0.00001  -0.00002   0.00001  -0.00002   2.05216
    R3        2.05216   0.00000   0.00001   0.00000   0.00000   2.05216
    R4        2.04714  -0.00001  -0.00002   0.00000  -0.00002   2.04713
    R5        2.50118  -0.00002   0.00000  -0.00001  -0.00002   2.50116
    R6        2.03629  -0.00001  -0.00002   0.00000  -0.00002   2.03627
    R7        2.03160  -0.00001  -0.00002   0.00001  -0.00001   2.03159
    R8        2.02856  -0.00002  -0.00004  -0.00001  -0.00005   2.02852
    A1        1.93752   0.00001   0.00005  -0.00001   0.00005   1.93757
    A2        1.93753   0.00001   0.00006  -0.00002   0.00004   1.93756
    A3        1.94583   0.00000  -0.00001   0.00000   0.00000   1.94583
    A4        1.86815  -0.00001  -0.00004   0.00000  -0.00004   1.86811
    A5        1.88592   0.00000   0.00000   0.00002   0.00002   1.88593
    A6        1.88600  -0.00001  -0.00008   0.00001  -0.00006   1.88593
    A7        2.18602  -0.00001  -0.00002  -0.00005  -0.00007   2.18595
    A8        2.01948   0.00002   0.00009   0.00002   0.00011   2.01959
    A9        2.07768  -0.00001  -0.00006   0.00002  -0.00004   2.07764
   A10        2.12767  -0.00001  -0.00006  -0.00001  -0.00007   2.12760
   A11        2.12556   0.00000  -0.00004   0.00001  -0.00002   2.12553
   A12        2.02996   0.00001   0.00009   0.00000   0.00009   2.03005
    D1       -2.10424   0.00000   0.00048   0.00007   0.00055  -2.10370
    D2        1.03733   0.00000   0.00056  -0.00003   0.00054   1.03786
    D3        2.10321   0.00000   0.00045   0.00009   0.00054   2.10375
    D4       -1.03841   0.00000   0.00054   0.00000   0.00053  -1.03787
    D5       -0.00057   0.00000   0.00051   0.00009   0.00060   0.00003
    D6        3.14100   0.00000   0.00060  -0.00001   0.00059   3.14159
    D7        0.00012   0.00000  -0.00005  -0.00009  -0.00014  -0.00002
    D8        3.14152   0.00001   0.00007   0.00000   0.00007   3.14159
    D9       -3.14145  -0.00001  -0.00014   0.00001  -0.00013  -3.14158
   D10       -0.00005   0.00000  -0.00002   0.00009   0.00008   0.00003
         Item               Value     Threshold  Converged?
 Maximum Force            0.000018     0.000450     YES
 RMS     Force            0.000008     0.000300     YES
 Maximum Displacement     0.000640     0.001800     YES
 RMS     Displacement     0.000261     0.001200     YES
 Predicted change in Energy=-7.035366D-09
 Optimization completed.
    -- Stationary point found.
                           ----------------------------
                           !   Optimized Parameters   !
                           ! (Angstroms and Degrees)  !
 --------------------------                            --------------------------
 ! Name  Definition              Value          Derivative Info.                !
 --------------------------------------------------------------------------------
 ! R1    R(1,2)                  1.5015         -DE/DX =    0.0                 !
 ! R2    R(1,3)                  1.086          -DE/DX =    0.0                 !
 ! R3    R(1,4)                  1.086          -DE/DX =    0.0                 !
 ! R4    R(1,5)                  1.0833         -DE/DX =    0.0                 !
 ! R5    R(2,6)                  1.3236         -DE/DX =    0.0                 !
 ! R6    R(2,7)                  1.0776         -DE/DX =    0.0                 !
 ! R7    R(6,8)                  1.0751         -DE/DX =    0.0                 !
 ! R8    R(6,9)                  1.0735         -DE/DX =    0.0                 !
 ! A1    A(2,1,3)              111.0117         -DE/DX =    0.0                 !
 ! A2    A(2,1,4)              111.0122         -DE/DX =    0.0                 !
 ! A3    A(2,1,5)              111.4878         -DE/DX =    0.0                 !
 ! A4    A(3,1,4)              107.037          -DE/DX =    0.0                 !
 ! A5    A(3,1,5)              108.0551         -DE/DX =    0.0                 !
 ! A6    A(4,1,5)              108.0596         -DE/DX =    0.0                 !
 ! A7    A(1,2,6)              125.2497         -DE/DX =    0.0                 !
 ! A8    A(1,2,7)              115.7079         -DE/DX =    0.0                 !
 ! A9    A(6,2,7)              119.0424         -DE/DX =    0.0                 !
 ! A10   A(2,6,8)              121.9063         -DE/DX =    0.0                 !
 ! A11   A(2,6,9)              121.7855         -DE/DX =    0.0                 !
 ! A12   A(8,6,9)              116.3082         -DE/DX =    0.0                 !
 ! D1    D(3,1,2,6)           -120.5643         -DE/DX =    0.0                 !
 ! D2    D(3,1,2,7)             59.4344         -DE/DX =    0.0                 !
 ! D3    D(4,1,2,6)            120.505          -DE/DX =    0.0                 !
 ! D4    D(4,1,2,7)            -59.4963         -DE/DX =    0.0                 !
 ! D5    D(5,1,2,6)             -0.0327         -DE/DX =    0.0                 !
 ! D6    D(5,1,2,7)            179.966          -DE/DX =    0.0                 !
 ! D7    D(1,2,6,8)              0.0066         -DE/DX =    0.0                 !
 ! D8    D(1,2,6,9)            179.996          -DE/DX =    0.0                 !
 ! D9    D(7,2,6,8)           -179.992          -DE/DX =    0.0                 !
 ! D10   D(7,2,6,9)             -0.0026         -DE/DX =    0.0                 !
 --------------------------------------------------------------------------------
 GradGradGradGradGradGradGradGradGradGradGradGradGradGradGradGradGradGrad

                          Input orientation:                          
 ---------------------------------------------------------------------
 Center     Atomic      Atomic             Coordinates (Angstroms)
 Number     Number       Type             X           Y           Z
 ---------------------------------------------------------------------
      1          6           0        0.024907    0.014857   -0.006039
      2          6           0        0.168036    0.024539    1.488626
      3          1           0        0.811921    0.596871   -0.476347
      4          1           0       -0.920579    0.454459   -0.309523
      5          1           0        0.069578   -0.992326   -0.402433
      6          6           0        0.328700   -1.047840    2.247582
      7          1           0        0.133705    0.995243    1.955201
      8          1           0        0.369544   -2.037997    1.830797
      9          1           0        0.425630   -0.976275    3.314269
 ---------------------------------------------------------------------
                    Distance matrix (angstroms):
                    1          2          3          4          5
     1  C    0.000000
     2  C    1.501534   0.000000
     3  H    1.085966   2.145523   0.000000
     4  H    1.085954   2.145519   1.746330   0.000000
     5  H    1.083301   2.149375   1.755587   1.755628   0.000000
     6  C    2.510064   1.323565   3.218441   3.218134   2.663232
     7  H    2.195326   1.077561   2.555602   2.555961   3.084312
     8  H    2.776140   2.100415   3.530034   3.529551   2.484094
     9  H    3.488175   2.097846   4.122229   4.122032   3.733752
                    6          7          8          9
     6  C    0.000000
     7  H    2.073089   0.000000
     8  H    1.075076   3.044938   0.000000
     9  H    1.073470   2.412296   1.825127   0.000000
 Stoichiometry    C3H6
 Framework group  C1[X(C3H6)]
 Deg. of freedom    21
 Full point group                 C1      NOp   1
 Largest Abelian subgroup         C1      NOp   1
 Largest concise Abelian subgroup C1      NOp   1
                         Standard orientation:                         
 ---------------------------------------------------------------------
 Center     Atomic      Atomic             Coordinates (Angstroms)
 Number     Number       Type             X           Y           Z
 ---------------------------------------------------------------------
      1          6           0        1.232840   -0.161242   -0.000006
      2          6           0       -0.137151    0.453352    0.000000
      3          1           0        1.799105    0.149696    0.872911
      4          1           0        1.798748    0.148909   -0.873419
      5          1           0        1.182306   -1.243363    0.000541
      6          6           0       -1.276532   -0.220174   -0.000025
      7          1           0       -0.166230    1.530520    0.000051
      8          1           0       -1.301252   -1.294966    0.000053
      9          1           0       -2.227621    0.277589    0.000045
 ---------------------------------------------------------------------
 Rotational constants (GHZ):     47.5714706      9.3250823      8.1848449

 **********************************************************************

            Population analysis using the SCF density.

 **********************************************************************

 Orbital symmetries:
       Occupied  (A) (A) (A) (A) (A) (A) (A) (A) (A) (A) (A) (A)
       Virtual   (A) (A) (A) (A) (A) (A) (A) (A) (A) (A) (A) (A)
                 (A) (A) (A) (A) (A) (A) (A) (A) (A) (A) (A) (A)
                 (A) (A) (A)
 The electronic state is 1-A.
 Alpha  occ. eigenvalues --  -11.23474 -11.21840 -11.21607  -1.06798  -0.93729
 Alpha  occ. eigenvalues --   -0.75840  -0.64016  -0.58350  -0.56702  -0.52167
 Alpha  occ. eigenvalues --   -0.48395  -0.35603
 Alpha virt. eigenvalues --    0.18763   0.25486   0.28325   0.29719   0.32655
 Alpha virt. eigenvalues --    0.33269   0.34879   0.44762   0.54795   0.70658
 Alpha virt. eigenvalues --    0.75928   0.76615   0.86125   0.86537   0.91362
 Alpha virt. eigenvalues --    0.93996   0.98560   1.08000   1.16513   1.20987
 Alpha virt. eigenvalues --    1.21912   1.24191   1.25657   1.28170   1.41736
 Alpha virt. eigenvalues --    1.51825   1.64264
          Condensed to atoms (all electrons):
               1          2          3          4          5          6
     1  C    5.121842   0.301599   0.386545   0.386544   0.395703  -0.054290
     2  C    0.301599   5.025589  -0.044239  -0.044242  -0.050434   0.621351
     3  H    0.386545  -0.044239   0.555868  -0.034748  -0.027445  -0.000131
     4  H    0.386544  -0.044242  -0.034748   0.555846  -0.027436  -0.000138
     5  H    0.395703  -0.050434  -0.027445  -0.027436   0.539512   0.000981
     6  C   -0.054290   0.621351  -0.000131  -0.000138   0.000981   5.038539
     7  H   -0.039832   0.395432  -0.000835  -0.000830   0.002962  -0.038851
     8  H   -0.003815  -0.047625   0.000116   0.000116   0.002309   0.399532
     9  H    0.003085  -0.040302  -0.000122  -0.000122   0.000127   0.394992
               7          8          9
     1  C   -0.039832  -0.003815   0.003085
     2  C    0.395432  -0.047625  -0.040302
     3  H   -0.000835   0.000116  -0.000122
     4  H   -0.000830   0.000116  -0.000122
     5  H    0.002962   0.002309   0.000127
     6  C   -0.038851   0.399532   0.394992
     7  H    0.514440   0.003142  -0.003047
     8  H    0.003142   0.517138  -0.026868
     9  H   -0.003047  -0.026868   0.512857
 Mulliken charges:
               1
     1  C   -0.497382
     2  C   -0.117128
     3  H    0.164990
     4  H    0.165010
     5  H    0.163722
     6  C   -0.361986
     7  H    0.167420
     8  H    0.155955
     9  H    0.159400
 Sum of Mulliken charges =   0.00000
 Mulliken charges with hydrogens summed into heavy atoms:
               1
     1  C   -0.003660
     2  C    0.050291
     6  C   -0.046631
 Electronic spatial extent (au):  <R**2>=            196.3551
 Charge=              0.0000 electrons
 Dipole moment (field-independent basis, Debye):
    X=              0.3454    Y=              0.0955    Z=              0.0001  Tot=              0.3583
 Quadrupole moment (field-independent basis, Debye-Ang):
   XX=            -19.2553   YY=            -18.9864   ZZ=            -21.9445
   XY=              0.1561   XZ=             -0.0003   YZ=             -0.0001
 Traceless Quadrupole moment (field-independent basis, Debye-Ang):
   XX=              0.8067   YY=              1.0757   ZZ=             -1.8824
   XY=              0.1561   XZ=             -0.0003   YZ=             -0.0001
 Octapole moment (field-independent basis, Debye-Ang**2):
  XXX=             -2.0514  YYY=             -0.1553  ZZZ=             -0.0006  XYY=             -0.5910
  XXY=              0.5017  XXZ=              0.0005  XZZ=              2.3530  YZZ=              0.2059
  YYZ=              0.0010  XYZ=              0.0002
 Hexadecapole moment (field-independent basis, Debye-Ang**3):
 XXXX=           -180.0746 YYYY=            -49.1593 ZZZZ=            -29.8054 XXXY=             -0.7991
 XXXZ=             -0.0008 YYYX=              0.3370 YYYZ=             -0.0009 ZZZX=             -0.0017
 ZZZY=              0.0002 XXYY=            -39.5561 XXZZ=            -36.6702 YYZZ=            -14.6741
 XXYZ=              0.0006 YYXZ=              0.0007 ZZXY=              0.5412
 N-N= 7.105123794223D+01 E-N=-4.141848128047D+02  KE= 1.171961914034D+02
 B after Tr=    -0.065070   -0.019794   -0.001199
         Rot=    0.999189   -0.001825    0.000314   -0.040227 Ang=  -4.62 deg.
 Final structure in terms of initial Z-matrix:
 C
 C,1,B1
 H,1,B2,2,A2
 H,1,B3,2,A3,3,D3,0
 H,1,B4,2,A4,3,D4,0
 C,2,B5,1,A5,3,D5,0
 H,2,B6,1,A6,3,D6,0
 H,6,B7,2,A7,1,D7,0
 H,6,B8,2,A8,1,D8,0
      Variables:
 B1=1.50153358
 B2=1.08596595
 A2=111.01172814
 B3=1.08595377
 A3=111.01220233
 D3=-118.93070966
 B4=1.08330063
 A4=111.48782603
 D4=120.5315827
 B5=1.32356536
 A5=125.24971314
 D5=-120.56425476
 B6=1.07756057
 A6=115.70789784
 D6=59.43440715
 B7=1.07507617
 A7=121.90628802
 D7=0.00661816
 B8=1.07347004
 A8=121.78548049
 D8=179.99602111
 1\1\GINC-C0702A-S5\FOpt\RHF\6-31G\C3H6\LE.CHEN\23-Sep-2021\0\\#hf/6-31
 g opt=(maxcyc=2000)\\Title\\0,1\C,0.0506303854,0.0250746331,-0.0071263
 385\C,0.1937599145,0.0347572481,1.4875385953\H,0.8376451128,0.60708907
 98,-0.4774337413\H,-0.8948550342,0.4646770292,-0.3106105256\H,0.095301
 2882,-0.9821080715,-0.403519777\C,0.3544241751,-1.0376222987,2.2464946
 92\H,0.1594283322,1.0054610313,1.9541136689\H,0.3952679853,-2.02777944
 8,1.8297101193\H,0.4513537031,-0.9660573178,3.3131816434\\Version=AS64
 L-G09RevD.01\State=1-A\HF=-117.0282764\RMSD=2.917e-09\RMSF=8.725e-06\D
 ipole=-0.0176081,0.0889108,-0.1079804\Quadrupole=-1.3668684,0.8380746,
 0.5287938,-0.1817128,0.1847742,0.0130146\PG=C01 [X(C3H6)]\\@


 EXPERIMENTALISTS THINK SILICON IS REALLY FUN TO USE
     ITS PLACE IN NOVEL COMPOUNDS IS CERTAIN TO AMUSE
 THEY SIT ALL DAY IN LABORATORIES MAKING ALL THIS SLUDGE
     "LOADED WITH THE SILICON THEY SAY", TO ME IT LOOKS LIKE FUDGE.
 FOR HAPPY THOUGH THEY BE WITH CRUD, I'D LIKE TO KNOW A LITTLE
      ABOUT THE PI BONDS ON THE EDGE AND SIGMAS IN THE MIDDLE.

 SO LETS DERIVE A WAVEFUNCTION.....6-31G*
     USE AN OPTIMAL GEOMETRY AND SEE WHERE ELECTRONS ARE.
 BUT WHAT OF CORRELATION?  ASKS THE WIRY LITTLE SKEPTIC.
     WE'LL THROW IN PERTURBATION AS AN ELECTRON ANTISEPTIC.
 AND WHEN THE PROGRAM GIVES US ANSWERS IN THEM WE CAN TRUST
     SINCE NOBODY CAN MAKE THE STUFF, WE HAVE NO CHOICE, WE MUST.

 SO THEORY GUYS HAVE GOT IT MADE, IN ROOMS FREE OF POLLUTION.
     INSTEAD OF PROBLEMS WITH THE REFLUX, THEY HAVE ONLY SOLUTIONS.
 AND WHEN THE FEDS ANNOUNCE THE LIST OF CARCINOGENIC TERRORS,
     THE THEORISTS SIT SAFELY AT THEIR TERMINALS FIXING ERRORS.
 IN OTHER WORDS, EXPERIMENTALISTS WILL LIKELY DIE OF CANCER
     FROM WORKING HARD YET FRUITLESSLY...TILL THEORY GIVES THE ANSWER.
          -- THOMAS A. HOLME, 1983
 Job cpu time:       0 days  0 hours  0 minutes 11.1 seconds.
 File lengths (MBytes):  RWF=      5 Int=      0 D2E=      0 Chk=      1 Scr=      1
 Normal termination of Gaussian 09 at Thu Sep 23 22:19:25 2021.
