 Entering Gaussian System, Link 0=g09
 Initial command:
 /apps/gaussian/g09/amd-sse4a/l1.exe "/blue/chm6586/le.chen/hw2/lumo_hf/Gau-84663.inp" -scrdir="/blue/chm6586/le.chen/hw2/lumo_hf/"
 Entering Link 1 = /apps/gaussian/g09/amd-sse4a/l1.exe PID=     84665.
  
 Copyright (c) 1988,1990,1992,1993,1995,1998,2003,2009,2013,
            Gaussian, Inc.  All Rights Reserved.
  
 This is part of the Gaussian(R) 09 program.  It is based on
 the Gaussian(R) 03 system (copyright 2003, Gaussian, Inc.),
 the Gaussian(R) 98 system (copyright 1998, Gaussian, Inc.),
 the Gaussian(R) 94 system (copyright 1995, Gaussian, Inc.),
 the Gaussian 92(TM) system (copyright 1992, Gaussian, Inc.),
 the Gaussian 90(TM) system (copyright 1990, Gaussian, Inc.),
 the Gaussian 88(TM) system (copyright 1988, Gaussian, Inc.),
 the Gaussian 86(TM) system (copyright 1986, Carnegie Mellon
 University), and the Gaussian 82(TM) system (copyright 1983,
 Carnegie Mellon University). Gaussian is a federally registered
 trademark of Gaussian, Inc.
  
 This software contains proprietary and confidential information,
 including trade secrets, belonging to Gaussian, Inc.
  
 This software is provided under written license and may be
 used, copied, transmitted, or stored only in accord with that
 written license.
  
 The following legend is applicable only to US Government
 contracts under FAR:
  
                    RESTRICTED RIGHTS LEGEND
  
 Use, reproduction and disclosure by the US Government is
 subject to restrictions as set forth in subparagraphs (a)
 and (c) of the Commercial Computer Software - Restricted
 Rights clause in FAR 52.227-19.
  
 Gaussian, Inc.
 340 Quinnipiac St., Bldg. 40, Wallingford CT 06492
  
  
 ---------------------------------------------------------------
 Warning -- This program may not be used in any manner that
 competes with the business of Gaussian, Inc. or will provide
 assistance to any competitor of Gaussian, Inc.  The licensee
 of this program is prohibited from giving any competitor of
 Gaussian, Inc. access to this program.  By using this program,
 the user acknowledges that Gaussian, Inc. is engaged in the
 business of creating and licensing software in the field of
 computational chemistry and represents and warrants to the
 licensee that it is not a competitor of Gaussian, Inc. and that
 it will not use this program in any manner prohibited above.
 ---------------------------------------------------------------
  

 Cite this work as:
 Gaussian 09, Revision D.01,
 M. J. Frisch, G. W. Trucks, H. B. Schlegel, G. E. Scuseria, 
 M. A. Robb, J. R. Cheeseman, G. Scalmani, V. Barone, B. Mennucci, 
 G. A. Petersson, H. Nakatsuji, M. Caricato, X. Li, H. P. Hratchian, 
 A. F. Izmaylov, J. Bloino, G. Zheng, J. L. Sonnenberg, M. Hada, 
 M. Ehara, K. Toyota, R. Fukuda, J. Hasegawa, M. Ishida, T. Nakajima, 
 Y. Honda, O. Kitao, H. Nakai, T. Vreven, J. A. Montgomery, Jr., 
 J. E. Peralta, F. Ogliaro, M. Bearpark, J. J. Heyd, E. Brothers, 
 K. N. Kudin, V. N. Staroverov, T. Keith, R. Kobayashi, J. Normand, 
 K. Raghavachari, A. Rendell, J. C. Burant, S. S. Iyengar, J. Tomasi, 
 M. Cossi, N. Rega, J. M. Millam, M. Klene, J. E. Knox, J. B. Cross, 
 V. Bakken, C. Adamo, J. Jaramillo, R. Gomperts, R. E. Stratmann, 
 O. Yazyev, A. J. Austin, R. Cammi, C. Pomelli, J. W. Ochterski, 
 R. L. Martin, K. Morokuma, V. G. Zakrzewski, G. A. Voth, 
 P. Salvador, J. J. Dannenberg, S. Dapprich, A. D. Daniels, 
 O. Farkas, J. B. Foresman, J. V. Ortiz, J. Cioslowski, 
 and D. J. Fox, Gaussian, Inc., Wallingford CT, 2013.
 
 ******************************************
 Gaussian 09:  AS64L-G09RevD.01 24-Apr-2013
                23-Sep-2021 
 ******************************************
 %NProcShared=2
 Will use up to    2 processors via shared memory.
 --------------------------------
 #n RHF/6-31G(d) Opt=(MaxCyc=500)
 --------------------------------
 1/6=500,18=20,19=15,38=1/1,3;
 2/9=110,12=2,17=6,18=5,40=1/2;
 3/5=1,6=6,7=1,11=1,16=1,25=1,30=1,71=1,116=1/1,2,3;
 4//1;
 5/5=2,38=5/2;
 6/7=2,8=2,9=2,10=2,28=1/1;
 7//1,2,3,16;
 1/6=500,18=20,19=15/3(2);
 2/9=110/2;
 99//99;
 2/9=110/2;
 3/5=1,6=6,7=1,11=1,16=1,25=1,30=1,71=1,116=1/1,2,3;
 4/5=5,16=3,69=1/1;
 5/5=2,38=5/2;
 7//1,2,3,16;
 1/6=500,18=20,19=15/3(-5);
 2/9=110/2;
 6/7=2,8=2,9=2,10=2,19=2,28=1/1;
 99/9=1/99;
 -----
 Title
 -----
 Symbolic Z-matrix:
 Charge =  0 Multiplicity = 1
 C
 C                    1    B1
 H                    1    B2       2    A2
 H                    1    B3       2    A3       3    D3       0
 H                    1    B4       2    A4       3    D4       0
 C                    2    B5       1    A5       3    D5       0
 H                    2    B6       1    A6       3    D6       0
 C                    6    B7       2    A7       1    D7       0
 H                    6    B8       2    A8       1    D8       0
 C                    8    B9       6    A9       2    D9       0
 H                    8    B10      6    A10      2    D10      0
 C                    10   B11      8    A11      6    D11      0
 H                    10   B12      8    A12      6    D12      0
 C                    12   B13      10   A13      8    D13      0
 H                    12   B14      10   A14      8    D14      0
 H                    14   B15      12   A15      10   D15      0
 H                    14   B16      12   A16      10   D16      0
       Variables:
  B1                    1.49438                  
  B2                    1.09405                  
  A2                  110.23523                  
  B3                    1.0944                   
  A3                  109.96915                  
  D3                  240.70417                  
  B4                    1.09491                  
  A4                  111.72558                  
  D4                  121.28268                  
  B5                    1.34108                  
  A5                  122.84905                  
  D5                  268.55531                  
  B6                    1.08723                  
  A6                  116.56907                  
  D6                   88.37936                  
  B7                    1.44471                  
  A7                  123.39803                  
  D7                  180.1941                   
  B8                    1.08842                  
  A8                  119.34043                  
  D8                    0.93586                  
  B9                    1.34206                  
  A9                  122.19029                  
  D9                  184.63922                  
  B10                   1.08768                  
  A10                 117.47895                  
  D10                   4.60547                  
  B11                   1.44317                  
  A11                 123.32587                  
  D11                 180.28325                  
  B12                   1.08809                  
  A12                 119.78446                  
  D12                   0.55918                  
  B13                   1.33886                  
  A13                 122.63694                  
  D13                 181.59878                  
  B14                   1.08772                  
  A14                 118.15286                  
  D14                   1.70944                  
  B15                   1.08544                  
  A15                 122.11674                  
  D15                   0.27309                  
  B16                   1.08516                  
  A16                 120.59534                  
  D16                 180.12543                  
 

 GradGradGradGradGradGradGradGradGradGradGradGradGradGradGradGradGradGrad
 Berny optimization.
 Initialization pass.
                           ----------------------------
                           !    Initial Parameters    !
                           ! (Angstroms and Degrees)  !
 --------------------------                            --------------------------
 ! Name  Definition              Value          Derivative Info.                !
 --------------------------------------------------------------------------------
 ! R1    R(1,2)                  1.4944         estimate D2E/DX2                !
 ! R2    R(1,3)                  1.094          estimate D2E/DX2                !
 ! R3    R(1,4)                  1.0944         estimate D2E/DX2                !
 ! R4    R(1,5)                  1.0949         estimate D2E/DX2                !
 ! R5    R(2,6)                  1.3411         estimate D2E/DX2                !
 ! R6    R(2,7)                  1.0872         estimate D2E/DX2                !
 ! R7    R(6,8)                  1.4447         estimate D2E/DX2                !
 ! R8    R(6,9)                  1.0884         estimate D2E/DX2                !
 ! R9    R(8,10)                 1.3421         estimate D2E/DX2                !
 ! R10   R(8,11)                 1.0877         estimate D2E/DX2                !
 ! R11   R(10,12)                1.4432         estimate D2E/DX2                !
 ! R12   R(10,13)                1.0881         estimate D2E/DX2                !
 ! R13   R(12,14)                1.3389         estimate D2E/DX2                !
 ! R14   R(12,15)                1.0877         estimate D2E/DX2                !
 ! R15   R(14,16)                1.0854         estimate D2E/DX2                !
 ! R16   R(14,17)                1.0852         estimate D2E/DX2                !
 ! A1    A(2,1,3)              110.2352         estimate D2E/DX2                !
 ! A2    A(2,1,4)              109.9691         estimate D2E/DX2                !
 ! A3    A(2,1,5)              111.7256         estimate D2E/DX2                !
 ! A4    A(3,1,4)              108.2639         estimate D2E/DX2                !
 ! A5    A(3,1,5)              108.9398         estimate D2E/DX2                !
 ! A6    A(4,1,5)              107.6069         estimate D2E/DX2                !
 ! A7    A(1,2,6)              122.8491         estimate D2E/DX2                !
 ! A8    A(1,2,7)              116.5691         estimate D2E/DX2                !
 ! A9    A(6,2,7)              120.5816         estimate D2E/DX2                !
 ! A10   A(2,6,8)              123.398          estimate D2E/DX2                !
 ! A11   A(2,6,9)              119.3404         estimate D2E/DX2                !
 ! A12   A(8,6,9)              117.2576         estimate D2E/DX2                !
 ! A13   A(6,8,10)             122.1903         estimate D2E/DX2                !
 ! A14   A(6,8,11)             117.4789         estimate D2E/DX2                !
 ! A15   A(10,8,11)            120.3308         estimate D2E/DX2                !
 ! A16   A(8,10,12)            123.3259         estimate D2E/DX2                !
 ! A17   A(8,10,13)            119.7845         estimate D2E/DX2                !
 ! A18   A(12,10,13)           116.8891         estimate D2E/DX2                !
 ! A19   A(10,12,14)           122.6369         estimate D2E/DX2                !
 ! A20   A(10,12,15)           118.1529         estimate D2E/DX2                !
 ! A21   A(14,12,15)           119.2101         estimate D2E/DX2                !
 ! A22   A(12,14,16)           122.1167         estimate D2E/DX2                !
 ! A23   A(12,14,17)           120.5953         estimate D2E/DX2                !
 ! A24   A(16,14,17)           117.2878         estimate D2E/DX2                !
 ! D1    D(3,1,2,6)            -91.4447         estimate D2E/DX2                !
 ! D2    D(3,1,2,7)             88.3794         estimate D2E/DX2                !
 ! D3    D(4,1,2,6)            149.2595         estimate D2E/DX2                !
 ! D4    D(4,1,2,7)            -30.9165         estimate D2E/DX2                !
 ! D5    D(5,1,2,6)             29.838          estimate D2E/DX2                !
 ! D6    D(5,1,2,7)           -150.338          estimate D2E/DX2                !
 ! D7    D(1,2,6,8)           -179.8059         estimate D2E/DX2                !
 ! D8    D(1,2,6,9)              0.9359         estimate D2E/DX2                !
 ! D9    D(7,2,6,8)              0.3769         estimate D2E/DX2                !
 ! D10   D(7,2,6,9)           -178.8813         estimate D2E/DX2                !
 ! D11   D(2,6,8,10)          -175.3608         estimate D2E/DX2                !
 ! D12   D(2,6,8,11)             4.6055         estimate D2E/DX2                !
 ! D13   D(9,6,8,10)             3.9118         estimate D2E/DX2                !
 ! D14   D(9,6,8,11)          -176.1219         estimate D2E/DX2                !
 ! D15   D(6,8,10,12)         -179.7167         estimate D2E/DX2                !
 ! D16   D(6,8,10,13)            0.5592         estimate D2E/DX2                !
 ! D17   D(11,8,10,12)           0.3179         estimate D2E/DX2                !
 ! D18   D(11,8,10,13)        -179.4061         estimate D2E/DX2                !
 ! D19   D(8,10,12,14)        -178.4012         estimate D2E/DX2                !
 ! D20   D(8,10,12,15)           1.7094         estimate D2E/DX2                !
 ! D21   D(13,10,12,14)          1.3303         estimate D2E/DX2                !
 ! D22   D(13,10,12,15)       -178.5591         estimate D2E/DX2                !
 ! D23   D(10,12,14,16)          0.2731         estimate D2E/DX2                !
 ! D24   D(10,12,14,17)       -179.8746         estimate D2E/DX2                !
 ! D25   D(15,12,14,16)       -179.8387         estimate D2E/DX2                !
 ! D26   D(15,12,14,17)          0.0136         estimate D2E/DX2                !
 --------------------------------------------------------------------------------
 Trust Radius=3.00D-01 FncErr=1.00D-07 GrdErr=1.00D-07
 Number of steps in this run=    102 maximum allowed number of steps=    102.
 GradGradGradGradGradGradGradGradGradGradGradGradGradGradGradGradGradGrad

                          Input orientation:                          
 ---------------------------------------------------------------------
 Center     Atomic      Atomic             Coordinates (Angstroms)
 Number     Number       Type             X           Y           Z
 ---------------------------------------------------------------------
      1          6           0        0.000000    0.000000    0.000000
      2          6           0        0.000000    0.000000    1.494380
      3          1           0        1.026526    0.000000   -0.378405
      4          1           0       -0.503314    0.897048   -0.373753
      5          1           0       -0.528159   -0.869260   -0.405294
      6          6           0       -0.028405   -1.126287    2.221819
      7          1           0        0.027502    0.972025    1.980672
      8          6           0       -0.032839   -1.140025    3.666457
      9          1           0       -0.037183   -2.089005    1.714124
     10          6           0        0.030374   -2.280653    4.370798
     11          1           0       -0.089383   -0.181440    4.177305
     12          6           0        0.021642   -2.323278    5.813312
     13          1           0        0.096457   -3.234103    3.850696
     14          6           0        0.116687   -3.467201    6.502480
     15          1           0       -0.067871   -1.383704    6.353981
     16          1           0        0.210419   -4.430663    6.011425
     17          1           0        0.104680   -3.460920    7.587556
 ---------------------------------------------------------------------
                    Distance matrix (angstroms):
                    1          2          3          4          5
     1  C    0.000000
     2  C    1.494380   0.000000
     3  H    1.094050   2.135668   0.000000
     4  H    1.094400   2.132590   1.773450   0.000000
     5  H    1.094910   2.154838   1.781398   1.766765   0.000000
     6  C    2.491146   1.341080   3.023667   3.325119   2.686547
     7  H    2.206502   1.087230   2.740096   2.414685   3.064624
     8  C    3.839745   2.453294   4.333914   4.549100   4.110694
     9  H    2.702507   2.100860   3.142307   3.673285   2.494146
    10  C    4.930130   3.670979   5.361775   5.735275   5.011491
    11  H    4.182198   2.690538   4.693896   4.695381   4.654656
    12  C    6.260406   4.904209   6.689153   6.994702   6.409954
    13  H    5.029571   4.002618   5.404604   5.939032   4.908775
    14  C    7.370030   6.092304   7.758599   8.167843   7.408270
    15  H    6.503255   5.053214   6.959695   7.117152   6.794433
    16  H    7.470762   6.330778   7.818358   8.346521   7.375863
    17  H    8.340259   7.008260   8.734088   9.096372   8.426317
                    6          7          8          9         10
     6  C    0.000000
     7  H    2.112863   0.000000
     8  C    1.444710   2.703011   0.000000
     9  H    1.088420   3.073294   2.170757   0.000000
    10  C    2.440109   4.036413   1.342060   2.664435   0.000000
    11  H    2.172643   2.483815   1.087680   3.115893   2.111510
    12  C    3.786043   5.054521   2.451947   4.106299   1.443170
    13  H    2.666781   4.603613   2.106139   2.427766   1.088090
    14  C    4.881085   6.337304   3.671666   4.985124   2.441191
    15  H    4.140361   4.968338   2.698777   4.693258   2.178803
    16  H    5.033593   6.743105   4.048005   4.900149   2.710464
    17  H    5.853149   7.148014   4.558561   6.033198   3.427255
                   11         12         13         14         15
    11  H    0.000000
    12  C    2.697465   0.000000
    13  H    3.075704   2.164963   0.000000
    14  C    4.030525   1.338860   2.662087   0.000000
    15  H    2.486729   1.087720   3.117277   2.096920   0.000000
    16  H    4.637863   2.125078   2.472548   1.085440   3.078758
    17  H    4.735236   2.109281   3.743746   1.085160   2.422046
                   16         17
    16  H    0.000000
    17  H    1.853583   0.000000
 Stoichiometry    C7H10
 Framework group  C1[X(C7H10)]
 Deg. of freedom    45
 Full point group                 C1      NOp   1
 Largest Abelian subgroup         C1      NOp   1
 Largest concise Abelian subgroup C1      NOp   1
                         Standard orientation:                         
 ---------------------------------------------------------------------
 Center     Atomic      Atomic             Coordinates (Angstroms)
 Number     Number       Type             X           Y           Z
 ---------------------------------------------------------------------
      1          6           0        3.655556   -0.281541    0.017512
      2          6           0        2.333956    0.415828    0.032398
      3          1           0        3.976892   -0.505254    1.039100
      4          1           0        4.411177    0.359461   -0.447101
      5          1           0        3.615256   -1.214198   -0.554637
      6          6           0        1.165482   -0.238187   -0.041275
      7          1           0        2.357066    1.500034    0.110061
      8          6           0       -0.118480    0.424038   -0.031954
      9          1           0        1.165399   -1.325021   -0.100015
     10          6           0       -1.274408   -0.257628   -0.015012
     11          1           0       -0.122267    1.511691   -0.038623
     12          6           0       -2.569914    0.378290   -0.011353
     13          1           0       -1.260164   -1.345502    0.001332
     14          6           0       -3.714373   -0.314829    0.037079
     15          1           0       -2.608516    1.464582   -0.051543
     16          1           0       -3.730848   -1.399260    0.080864
     17          1           0       -4.670906    0.197633    0.036188
 ---------------------------------------------------------------------
 Rotational constants (GHZ):     19.8369049      0.8308361      0.8017472
 Standard basis: 6-31G(d) (6D, 7F)
 There are   125 symmetry adapted cartesian basis functions of A   symmetry.
 There are   125 symmetry adapted basis functions of A   symmetry.
   125 basis functions,   236 primitive gaussians,   125 cartesian basis functions
    26 alpha electrons       26 beta electrons
       nuclear repulsion energy       253.2449710160 Hartrees.
 NAtoms=   17 NActive=   17 NUniq=   17 SFac= 1.00D+00 NAtFMM=   60 NAOKFM=F Big=F
 Integral buffers will be    131072 words long.
 Raffenetti 1 integral format.
 Two-electron integral symmetry is turned on.
 One-electron integrals computed using PRISM.
 NBasis=   125 RedAO= T EigKep=  2.08D-03  NBF=   125
 NBsUse=   125 1.00D-06 EigRej= -1.00D+00 NBFU=   125
 ExpMin= 1.61D-01 ExpMax= 3.05D+03 ExpMxC= 4.57D+02 IAcc=1 IRadAn=         1 AccDes= 0.00D+00
 Harris functional with IExCor=  205 and IRadAn=       1 diagonalized for initial guess.
 HarFok:  IExCor=  205 AccDes= 0.00D+00 IRadAn=         1 IDoV= 1 UseB2=F ITyADJ=14
 ICtDFT=  3500011 ScaDFX=  1.000000  1.000000  1.000000  1.000000
 FoFCou: FMM=F IPFlag=           0 FMFlag=      100000 FMFlg1=           0
         NFxFlg=           0 DoJE=T BraDBF=F KetDBF=T FulRan=T
         wScrn=  0.000000 ICntrl=     500 IOpCl=  0 I1Cent=   200000004 NGrid=           0
         NMat0=    1 NMatS0=      1 NMatT0=    0 NMatD0=    1 NMtDS0=    0 NMtDT0=    0
 Petite list used in FoFCou.
 Keep R1 ints in memory in canonical form, NReq=32079007.
 Requested convergence on RMS density matrix=1.00D-08 within 128 cycles.
 Requested convergence on MAX density matrix=1.00D-06.
 Requested convergence on             energy=1.00D-06.
 No special actions if energy rises.
 SCF Done:  E(RHF) =  -270.843261989     A.U. after   13 cycles
            NFock= 13  Conv=0.97D-08     -V/T= 2.0013

 **********************************************************************

            Population analysis using the SCF density.

 **********************************************************************

 Orbital symmetries:
       Occupied  (A) (A) (A) (A) (A) (A) (A) (A) (A) (A) (A) (A)
                 (A) (A) (A) (A) (A) (A) (A) (A) (A) (A) (A) (A)
                 (A) (A)
       Virtual   (A) (A) (A) (A) (A) (A) (A) (A) (A) (A) (A) (A)
                 (A) (A) (A) (A) (A) (A) (A) (A) (A) (A) (A) (A)
                 (A) (A) (A) (A) (A) (A) (A) (A) (A) (A) (A) (A)
                 (A) (A) (A) (A) (A) (A) (A) (A) (A) (A) (A) (A)
                 (A) (A) (A) (A) (A) (A) (A) (A) (A) (A) (A) (A)
                 (A) (A) (A) (A) (A) (A) (A) (A) (A) (A) (A) (A)
                 (A) (A) (A) (A) (A) (A) (A) (A) (A) (A) (A) (A)
                 (A) (A) (A) (A) (A) (A) (A) (A) (A) (A) (A) (A)
                 (A) (A) (A)
 The electronic state is 1-A.
 Alpha  occ. eigenvalues --  -11.23261 -11.23223 -11.23202 -11.22814 -11.22606
 Alpha  occ. eigenvalues --  -11.22207 -11.22146  -1.10752  -1.06568  -1.00372
 Alpha  occ. eigenvalues --   -0.92406  -0.81448  -0.75613  -0.74432  -0.64754
 Alpha  occ. eigenvalues --   -0.63929  -0.57958  -0.57105  -0.57053  -0.53047
 Alpha  occ. eigenvalues --   -0.51886  -0.50163  -0.48491  -0.45685  -0.38104
 Alpha  occ. eigenvalues --   -0.27704
 Alpha virt. eigenvalues --    0.10511   0.21603   0.24177   0.25861   0.27314
 Alpha virt. eigenvalues --    0.27508   0.28441   0.29871   0.31732   0.33096
 Alpha virt. eigenvalues --    0.34304   0.35474   0.36106   0.43705   0.49331
 Alpha virt. eigenvalues --    0.51296   0.53791   0.56370   0.61791   0.68352
 Alpha virt. eigenvalues --    0.71029   0.75045   0.77046   0.78962   0.80773
 Alpha virt. eigenvalues --    0.81757   0.82082   0.85244   0.86754   0.87691
 Alpha virt. eigenvalues --    0.88434   0.93803   0.94985   0.96702   0.99085
 Alpha virt. eigenvalues --    1.03837   1.09952   1.12243   1.13076   1.14755
 Alpha virt. eigenvalues --    1.15276   1.16508   1.17346   1.20031   1.20484
 Alpha virt. eigenvalues --    1.22380   1.23216   1.24820   1.30282   1.31206
 Alpha virt. eigenvalues --    1.36044   1.41774   1.49019   1.53437   1.58399
 Alpha virt. eigenvalues --    1.60304   1.62673   1.64729   1.69053   1.73049
 Alpha virt. eigenvalues --    1.75395   1.84320   1.94570   2.03580   2.08998
 Alpha virt. eigenvalues --    2.14240   2.15414   2.21177   2.25029   2.26241
 Alpha virt. eigenvalues --    2.32250   2.34255   2.38824   2.42532   2.47807
 Alpha virt. eigenvalues --    2.51425   2.56454   2.60767   2.63987   2.67280
 Alpha virt. eigenvalues --    2.68906   2.76384   2.77964   2.82799   2.84688
 Alpha virt. eigenvalues --    2.94106   3.05632   3.17579   3.22047   3.28350
 Alpha virt. eigenvalues --    3.45200   3.46043   4.52989   4.53985   4.57355
 Alpha virt. eigenvalues --    4.61433   4.72038   4.82863   4.95278
          Condensed to atoms (all electrons):
               1          2          3          4          5          6
     1  C    5.088337   0.333084   0.387604   0.393505   0.396622  -0.050474
     2  C    0.333084   5.012299  -0.040222  -0.040463  -0.042685   0.663236
     3  H    0.387604  -0.040222   0.532127  -0.029334  -0.024224  -0.005058
     4  H    0.393505  -0.040463  -0.029334   0.536730  -0.026277   0.002760
     5  H    0.396622  -0.042685  -0.024224  -0.026277   0.518578  -0.001489
     6  C   -0.050474   0.663236  -0.005058   0.002760  -0.001489   4.886921
     7  H   -0.038433   0.394071   0.001718  -0.003482   0.002820  -0.040660
     8  C    0.002561  -0.050423  -0.000067  -0.000073   0.000154   0.411657
     9  H   -0.003402  -0.039437   0.000307   0.000053   0.002364   0.392980
    10  C   -0.000088   0.000442   0.000008   0.000001  -0.000001  -0.049517
    11  H    0.000021  -0.000447  -0.000003   0.000003   0.000006  -0.038415
    12  C    0.000001  -0.000109   0.000000   0.000000   0.000000   0.002461
    13  H   -0.000005   0.000209   0.000000   0.000000   0.000000  -0.002891
    14  C    0.000000   0.000003   0.000000   0.000000   0.000000  -0.000104
    15  H    0.000000  -0.000002   0.000000   0.000000   0.000000   0.000098
    16  H    0.000000   0.000000   0.000000   0.000000   0.000000  -0.000001
    17  H    0.000000   0.000000   0.000000   0.000000   0.000000   0.000001
               7          8          9         10         11         12
     1  C   -0.038433   0.002561  -0.003402  -0.000088   0.000021   0.000001
     2  C    0.394071  -0.050423  -0.039437   0.000442  -0.000447  -0.000109
     3  H    0.001718  -0.000067   0.000307   0.000008  -0.000003   0.000000
     4  H   -0.003482  -0.000073   0.000053   0.000001   0.000003   0.000000
     5  H    0.002820   0.000154   0.002364  -0.000001   0.000006   0.000000
     6  C   -0.040660   0.411657   0.392980  -0.049517  -0.038415   0.002461
     7  H    0.498880  -0.002416   0.003217   0.000181   0.002878  -0.000001
     8  C   -0.002416   4.899680  -0.040604   0.653536   0.389853  -0.047623
     9  H    0.003217  -0.040604   0.496952  -0.000264   0.002656   0.000127
    10  C    0.000181   0.653536  -0.000264   4.922486  -0.038201   0.412867
    11  H    0.002878   0.389853   0.002656  -0.038201   0.490546  -0.002429
    12  C   -0.000001  -0.047623   0.000127   0.412867  -0.002429   4.859229
    13  H    0.000008  -0.038749   0.003001   0.391210   0.003103  -0.038703
    14  C    0.000000   0.000519  -0.000003  -0.053797   0.000165   0.634343
    15  H    0.000000   0.000068   0.000005  -0.041648   0.002812   0.392508
    16  H    0.000000   0.000158   0.000000  -0.002601   0.000008  -0.044582
    17  H    0.000000  -0.000079   0.000000   0.002589  -0.000003  -0.036111
              13         14         15         16         17
     1  C   -0.000005   0.000000   0.000000   0.000000   0.000000
     2  C    0.000209   0.000003  -0.000002   0.000000   0.000000
     3  H    0.000000   0.000000   0.000000   0.000000   0.000000
     4  H    0.000000   0.000000   0.000000   0.000000   0.000000
     5  H    0.000000   0.000000   0.000000   0.000000   0.000000
     6  C   -0.002891  -0.000104   0.000098  -0.000001   0.000001
     7  H    0.000008   0.000000   0.000000   0.000000   0.000000
     8  C   -0.038749   0.000519   0.000068   0.000158  -0.000079
     9  H    0.003001  -0.000003   0.000005   0.000000   0.000000
    10  C    0.391210  -0.053797  -0.041648  -0.002601   0.002589
    11  H    0.003103   0.000165   0.002812   0.000008  -0.000003
    12  C   -0.038703   0.634343   0.392508  -0.044582  -0.036111
    13  H    0.492002  -0.000489   0.002640   0.002882  -0.000006
    14  C   -0.000489   5.083083  -0.035298   0.396169   0.393502
    15  H    0.002640  -0.035298   0.491097   0.002995  -0.003152
    16  H    0.002882   0.396169   0.002995   0.495032  -0.026130
    17  H   -0.000006   0.393502  -0.003152  -0.026130   0.491874
 Mulliken charges:
               1
     1  C   -0.509334
     2  C   -0.189553
     3  H    0.177143
     4  H    0.166578
     5  H    0.174132
     6  C   -0.171505
     7  H    0.181218
     8  C   -0.178152
     9  H    0.182048
    10  C   -0.197202
    11  H    0.187448
    12  C   -0.131979
    13  H    0.185788
    14  C   -0.418093
    15  H    0.187877
    16  H    0.176071
    17  H    0.177514
 Sum of Mulliken charges =   0.00000
 Mulliken charges with hydrogens summed into heavy atoms:
               1
     1  C    0.008519
     2  C   -0.008335
     6  C    0.010543
     8  C    0.009297
    10  C   -0.011413
    12  C    0.055898
    14  C   -0.064509
 Electronic spatial extent (au):  <R**2>=           1428.3090
 Charge=              0.0000 electrons
 Dipole moment (field-independent basis, Debye):
    X=              0.6051    Y=              0.1025    Z=              0.0307  Tot=              0.6145
 Quadrupole moment (field-independent basis, Debye-Ang):
   XX=            -40.6669   YY=            -39.6276   ZZ=            -48.3120
   XY=              0.3665   XZ=              0.0626   YZ=              0.0429
 Traceless Quadrupole moment (field-independent basis, Debye-Ang):
   XX=              2.2019   YY=              3.2412   ZZ=             -5.4432
   XY=              0.3665   XZ=              0.0626   YZ=              0.0429
 Octapole moment (field-independent basis, Debye-Ang**2):
  XXX=              0.1409  YYY=              0.7117  ZZZ=              0.6121  XYY=             -1.9798
  XXY=              2.1193  XXZ=              0.6342  XZZ=              5.7378  YZZ=             -0.4913
  YYZ=             -0.3923  XYZ=              0.6511
 Hexadecapole moment (field-independent basis, Debye-Ang**3):
 XXXX=          -1729.4388 YYYY=           -116.9472 ZZZZ=            -58.7523 XXXY=              4.6202
 XXXZ=             -2.5959 YYYX=              3.1075 YYYZ=              0.7715 ZZZX=              2.6395
 ZZZY=             -0.2417 XXYY=           -303.4952 XXZZ=           -334.2781 YYZZ=            -32.5502
 XXYZ=             -1.9702 YYXZ=             -1.5295 ZZXY=             -1.8720
 N-N= 2.532449710160D+02 E-N=-1.136339261763D+03  KE= 2.705013973445D+02
 Calling FoFJK, ICntrl=      2127 FMM=F ISym2X=0 I1Cent= 0 IOpClX= 0 NMat=1 NMatS=1 NMatT=0.
 ***** Axes restored to original set *****
 -------------------------------------------------------------------
 Center     Atomic                   Forces (Hartrees/Bohr)
 Number     Number              X              Y              Z
 -------------------------------------------------------------------
      1        6          -0.002738504    0.004592162   -0.009077540
      2        6          -0.002926216   -0.017153379    0.011992800
      3        1          -0.005589026    0.001040711   -0.001877828
      4        1           0.004251199   -0.005493110   -0.000822812
      5        1           0.005968214    0.004876316    0.002426752
      6        6           0.001097748    0.020246024   -0.018899024
      7        1           0.000374892   -0.007412778   -0.000484348
      8        6           0.001098789   -0.014929083    0.014617112
      9        1          -0.000947036    0.006645446    0.003567367
     10        6          -0.000845425    0.014680251   -0.016016025
     11        1           0.000568661   -0.006939712   -0.002672171
     12        6           0.001366536   -0.018295410    0.022730589
     13        1          -0.000847512    0.007052351    0.003093049
     14        6          -0.001084039    0.012727794    0.000753332
     15        1           0.000733150   -0.005918402   -0.004910261
     16        1          -0.000835947    0.006469410    0.003210556
     17        1           0.000354516   -0.002188592   -0.007631547
 -------------------------------------------------------------------
 Cartesian Forces:  Max     0.022730589 RMS     0.008640864

 GradGradGradGradGradGradGradGradGradGradGradGradGradGradGradGradGradGrad
 Berny optimization.
 FormGI is forming the generalized inverse of G from B-inverse, IUseBI=4.
 Internal  Forces:  Max     0.017602845 RMS     0.005740774
 Search for a local minimum.
 Step number   1 out of a maximum of  102
 All quantities printed in internal units (Hartrees-Bohrs-Radians)
 Mixed Optimization -- RFO/linear search
 Second derivative matrix not updated -- first step.
 ITU=  0
     Eigenvalues ---    0.00840   0.01497   0.01518   0.01689   0.02195
     Eigenvalues ---    0.02196   0.02205   0.02215   0.02855   0.02868
     Eigenvalues ---    0.02898   0.02898   0.07238   0.07456   0.15999
     Eigenvalues ---    0.16000   0.16000   0.16000   0.16000   0.16000
     Eigenvalues ---    0.16000   0.16000   0.16000   0.16000   0.22000
     Eigenvalues ---    0.22000   0.22000   0.22000   0.22000   0.32974
     Eigenvalues ---    0.34251   0.34309   0.34349   0.34996   0.35034
     Eigenvalues ---    0.35077   0.35082   0.35135   0.35345   0.35378
     Eigenvalues ---    0.38946   0.39154   0.56746   0.56964   0.57461
 RFO step:  Lambda=-6.67289950D-03 EMin= 8.40289264D-03
 Linear search not attempted -- first point.
 Iteration  1 RMS(Cart)=  0.06237857 RMS(Int)=  0.00168686
 Iteration  2 RMS(Cart)=  0.00215878 RMS(Int)=  0.00006024
 Iteration  3 RMS(Cart)=  0.00000292 RMS(Int)=  0.00006021
 Iteration  4 RMS(Cart)=  0.00000000 RMS(Int)=  0.00006021
 Variable       Old X    -DE/DX   Delta X   Delta X   Delta X     New X
                                 (Linear)    (Quad)   (Total)
    R1        2.82397   0.00935   0.00000   0.02780   0.02780   2.85177
    R2        2.06745  -0.00459   0.00000  -0.01312  -0.01312   2.05433
    R3        2.06812  -0.00618   0.00000  -0.01766  -0.01766   2.05046
    R4        2.06908  -0.00765   0.00000  -0.02190  -0.02190   2.04718
    R5        2.53427  -0.01760   0.00000  -0.03054  -0.03054   2.50373
    R6        2.05457  -0.00683   0.00000  -0.01909  -0.01909   2.03548
    R7        2.73011   0.01324   0.00000   0.03343   0.03343   2.76353
    R8        2.05682  -0.00753   0.00000  -0.02113  -0.02113   2.03569
    R9        2.53613  -0.01176   0.00000  -0.02048  -0.02048   2.51565
   R10        2.05542  -0.00740   0.00000  -0.02070  -0.02070   2.03472
   R11        2.72720   0.01436   0.00000   0.03605   0.03605   2.76325
   R12        2.05619  -0.00771   0.00000  -0.02159  -0.02159   2.03460
   R13        2.53008  -0.01653   0.00000  -0.02844  -0.02844   2.50164
   R14        2.05549  -0.00761   0.00000  -0.02130  -0.02130   2.03419
   R15        2.05118  -0.00727   0.00000  -0.02018  -0.02018   2.03100
   R16        2.05066  -0.00765   0.00000  -0.02122  -0.02122   2.02944
    A1        1.92397   0.00408   0.00000   0.02176   0.02165   1.94561
    A2        1.91932   0.00401   0.00000   0.02682   0.02664   1.94596
    A3        1.94998  -0.00089   0.00000  -0.00535  -0.00536   1.94462
    A4        1.88956  -0.00411   0.00000  -0.02464  -0.02491   1.86465
    A5        1.90136  -0.00273   0.00000  -0.02139  -0.02134   1.88001
    A6        1.87810  -0.00067   0.00000   0.00116   0.00109   1.87918
    A7        2.14412   0.00829   0.00000   0.03654   0.03651   2.18063
    A8        2.03451  -0.00119   0.00000  -0.00058  -0.00062   2.03390
    A9        2.10455  -0.00709   0.00000  -0.03600  -0.03603   2.06851
   A10        2.15370   0.00465   0.00000   0.02054   0.02051   2.17421
   A11        2.08288  -0.00224   0.00000  -0.00969  -0.00972   2.07317
   A12        2.04653  -0.00241   0.00000  -0.01070  -0.01073   2.03581
   A13        2.13262   0.00902   0.00000   0.03979   0.03979   2.17241
   A14        2.05039  -0.00358   0.00000  -0.01429  -0.01429   2.03611
   A15        2.10017  -0.00544   0.00000  -0.02550  -0.02550   2.07466
   A16        2.15244   0.00459   0.00000   0.02027   0.02027   2.17271
   A17        2.09063  -0.00298   0.00000  -0.01425  -0.01425   2.07638
   A18        2.04010  -0.00161   0.00000  -0.00601  -0.00601   2.03409
   A19        2.14042   0.00735   0.00000   0.03243   0.03243   2.17284
   A20        2.06216  -0.00501   0.00000  -0.02422  -0.02422   2.03793
   A21        2.08061  -0.00234   0.00000  -0.00820  -0.00820   2.07241
   A22        2.13134  -0.00159   0.00000  -0.00954  -0.00954   2.12180
   A23        2.10479   0.00301   0.00000   0.01806   0.01806   2.12285
   A24        2.04706  -0.00142   0.00000  -0.00851  -0.00851   2.03854
    D1       -1.59601  -0.00024   0.00000  -0.04211  -0.04192  -1.63794
    D2        1.54251  -0.00060   0.00000  -0.05740  -0.05734   1.48517
    D3        2.60507  -0.00023   0.00000  -0.04206  -0.04208   2.56299
    D4       -0.53959  -0.00059   0.00000  -0.05735  -0.05749  -0.59709
    D5        0.52077  -0.00148   0.00000  -0.05785  -0.05783   0.46294
    D6       -2.62389  -0.00184   0.00000  -0.07314  -0.07325  -2.69714
    D7       -3.13820  -0.00112   0.00000  -0.03321  -0.03312   3.11186
    D8        0.01633  -0.00151   0.00000  -0.04675  -0.04666  -0.03032
    D9        0.00658  -0.00076   0.00000  -0.01739  -0.01749  -0.01091
   D10       -3.12207  -0.00115   0.00000  -0.03093  -0.03102   3.13009
   D11       -3.06062  -0.00083   0.00000  -0.03585  -0.03586  -3.09648
   D12        0.08038  -0.00078   0.00000  -0.03417  -0.03417   0.04621
   D13        0.06827  -0.00045   0.00000  -0.02258  -0.02258   0.04569
   D14       -3.07391  -0.00040   0.00000  -0.02090  -0.02090  -3.09480
   D15       -3.13665  -0.00031   0.00000  -0.00827  -0.00828   3.13826
   D16        0.00976  -0.00045   0.00000  -0.01306  -0.01305  -0.00330
   D17        0.00555  -0.00036   0.00000  -0.01000  -0.01000  -0.00445
   D18       -3.13123  -0.00050   0.00000  -0.01479  -0.01478   3.13718
   D19       -3.11369  -0.00026   0.00000  -0.01132  -0.01133  -3.12502
   D20        0.02984  -0.00031   0.00000  -0.01310  -0.01310   0.01673
   D21        0.02322  -0.00012   0.00000  -0.00669  -0.00668   0.01653
   D22       -3.11644  -0.00018   0.00000  -0.00846  -0.00845  -3.12490
   D23        0.00477  -0.00021   0.00000  -0.00597  -0.00597  -0.00121
   D24       -3.13940  -0.00009   0.00000  -0.00278  -0.00278   3.14100
   D25       -3.13878  -0.00016   0.00000  -0.00419  -0.00419   3.14022
   D26        0.00024  -0.00004   0.00000  -0.00100  -0.00100  -0.00076
         Item               Value     Threshold  Converged?
 Maximum Force            0.017603     0.000450     NO 
 RMS     Force            0.005741     0.000300     NO 
 Maximum Displacement     0.239381     0.001800     NO 
 RMS     Displacement     0.062214     0.001200     NO 
 Predicted change in Energy=-3.496930D-03
 GradGradGradGradGradGradGradGradGradGradGradGradGradGradGradGradGradGrad

                          Input orientation:                          
 ---------------------------------------------------------------------
 Center     Atomic      Atomic             Coordinates (Angstroms)
 Number     Number       Type             X           Y           Z
 ---------------------------------------------------------------------
      1          6           0        0.002707    0.038355   -0.027890
      2          6           0       -0.022242   -0.018670    1.479916
      3          1           0        1.018076    0.126675   -0.406079
      4          1           0       -0.547831    0.895032   -0.402532
      5          1           0       -0.435610   -0.850826   -0.464712
      6          6           0       -0.028229   -1.132644    2.197154
      7          1           0       -0.018202    0.926052    1.997302
      8          6           0       -0.016660   -1.178620    3.658785
      9          1           0       -0.043141   -2.079776    1.684158
     10          6           0        0.026797   -2.298604    4.377051
     11          1           0       -0.046770   -0.232640    4.172159
     12          6           0        0.042394   -2.344878    5.838482
     13          1           0        0.052789   -3.245547    3.865362
     14          6           0        0.103670   -3.457792    6.552724
     15          1           0        0.000473   -1.400751    6.353855
     16          1           0        0.145886   -4.424705    6.085381
     17          1           0        0.113029   -3.438127    7.626436
 ---------------------------------------------------------------------
                    Distance matrix (angstroms):
                    1          2          3          4          5
     1  C    0.000000
     2  C    1.509090   0.000000
     3  H    1.087106   2.158787   0.000000
     4  H    1.085055   2.157476   1.744262   0.000000
     5  H    1.083319   2.155211   1.752755   1.750566   0.000000
     6  C    2.514561   1.324917   3.075298   3.337637   2.707565
     7  H    2.211300   1.077128   2.736625   2.457778   3.064807
     8  C    3.882393   2.468397   4.392903   4.590911   4.157666
     9  H    2.723911   2.071306   3.219270   3.668578   2.506390
    10  C    4.986528   3.686990   5.453709   5.777016   5.074696
    11  H    4.209073   2.700844   4.714156   4.738196   4.694030
    12  C    6.332116   4.940903   6.786389   7.056602   6.495455
    13  H    5.093519   4.013567   5.527103   5.976626   4.972199
    14  C    7.452363   6.129992   7.880957   8.230863   7.505431
    15  H    6.541994   5.066157   7.004659   7.156816   6.854592
    16  H    7.570435   6.375871   7.975891   8.418662   7.484281
    17  H    8.407544   7.034962   8.834490   9.147531   8.512449
                    6          7          8          9         10
     6  C    0.000000
     7  H    2.068398   0.000000
     8  C    1.462400   2.681450   0.000000
     9  H    1.077240   3.022199   2.170699   0.000000
    10  C    2.472739   4.007946   1.331224   2.702674   0.000000
    11  H    2.170483   2.464424   1.076725   3.098721   2.077402
    12  C    3.838459   5.045525   2.472797   4.163653   1.462247
    13  H    2.693296   4.571316   2.078385   2.475051   1.076663
    14  C    4.939099   6.323354   3.685646   5.061958   2.466411
    15  H    4.165437   4.939019   2.704263   4.719009   2.171310
    16  H    5.097676   6.735720   4.056089   4.990510   2.729997
    17  H    5.900196   7.123933   4.567762   6.097555   3.444482
                   11         12         13         14         15
    11  H    0.000000
    12  C    2.691864   0.000000
    13  H    3.030123   2.168990   0.000000
    14  C    4.011400   1.323811   2.696210   0.000000
    15  H    2.475179   1.076449   3.098162   2.069207   0.000000
    16  H    4.612043   2.096987   2.515465   1.074762   3.039330
    17  H    4.715157   2.096893   3.766483   1.073933   2.404794
                   16         17
    16  H    0.000000
    17  H    1.830100   0.000000
 Stoichiometry    C7H10
 Framework group  C1[X(C7H10)]
 Deg. of freedom    45
 Full point group                 C1      NOp   1
 Largest Abelian subgroup         C1      NOp   1
 Largest concise Abelian subgroup C1      NOp   1
                         Standard orientation:                         
 ---------------------------------------------------------------------
 Center     Atomic      Atomic             Coordinates (Angstroms)
 Number     Number       Type             X           Y           Z
 ---------------------------------------------------------------------
      1          6           0        3.701708   -0.247814    0.027849
      2          6           0        2.340522    0.403266    0.002953
      3          1           0        4.064118   -0.373720    1.045005
      4          1           0        4.438761    0.351511   -0.496466
      5          1           0        3.681152   -1.225548   -0.438192
      6          6           0        1.187971   -0.249017   -0.036515
      7          1           0        2.321315    1.479693    0.036732
      8          6           0       -0.127682    0.389362   -0.024625
      9          1           0        1.202316   -1.325233   -0.081230
     10          6           0       -1.284592   -0.269138   -0.014858
     11          1           0       -0.142299    1.465988   -0.024946
     12          6           0       -2.600260    0.368772    0.001049
     13          1           0       -1.271860   -1.345719   -0.018681
     14          6           0       -3.750559   -0.285839    0.028840
     15          1           0       -2.617351    1.445017   -0.011132
     16          1           0       -3.786585   -1.359931    0.040671
     17          1           0       -4.692218    0.230382    0.040083
 ---------------------------------------------------------------------
 Rotational constants (GHZ):     20.9733823      0.8141112      0.7875992
 Standard basis: 6-31G(d) (6D, 7F)
 There are   125 symmetry adapted cartesian basis functions of A   symmetry.
 There are   125 symmetry adapted basis functions of A   symmetry.
   125 basis functions,   236 primitive gaussians,   125 cartesian basis functions
    26 alpha electrons       26 beta electrons
       nuclear repulsion energy       252.6723180268 Hartrees.
 NAtoms=   17 NActive=   17 NUniq=   17 SFac= 1.00D+00 NAtFMM=   60 NAOKFM=F Big=F
 Integral buffers will be    131072 words long.
 Raffenetti 1 integral format.
 Two-electron integral symmetry is turned on.
 One-electron integrals computed using PRISM.
 NBasis=   125 RedAO= T EigKep=  2.10D-03  NBF=   125
 NBsUse=   125 1.00D-06 EigRej= -1.00D+00 NBFU=   125
 Initial guess from the checkpoint file:  "/blue/chm6586/le.chen/hw2/lumo_hf/Gau-84665.chk"
 B after Tr=     0.000000    0.000000    0.000000
         Rot=    0.999964    0.008458   -0.000095   -0.000707 Ang=   0.97 deg.
 ExpMin= 1.61D-01 ExpMax= 3.05D+03 ExpMxC= 4.57D+02 IAcc=1 IRadAn=         1 AccDes= 0.00D+00
 Harris functional with IExCor=  205 and IRadAn=       1 diagonalized for initial guess.
 HarFok:  IExCor=  205 AccDes= 0.00D+00 IRadAn=         1 IDoV= 1 UseB2=F ITyADJ=14
 ICtDFT=  3500011 ScaDFX=  1.000000  1.000000  1.000000  1.000000
 FoFCou: FMM=F IPFlag=           0 FMFlag=      100000 FMFlg1=           0
         NFxFlg=           0 DoJE=T BraDBF=F KetDBF=T FulRan=T
         wScrn=  0.000000 ICntrl=     500 IOpCl=  0 I1Cent=   200000004 NGrid=           0
         NMat0=    1 NMatS0=      1 NMatT0=    0 NMatD0=    1 NMtDS0=    0 NMtDT0=    0
 Petite list used in FoFCou.
 Keep R1 ints in memory in canonical form, NReq=32079007.
 Requested convergence on RMS density matrix=1.00D-08 within 128 cycles.
 Requested convergence on MAX density matrix=1.00D-06.
 Requested convergence on             energy=1.00D-06.
 No special actions if energy rises.
 SCF Done:  E(RHF) =  -270.846374747     A.U. after   11 cycles
            NFock= 11  Conv=0.95D-08     -V/T= 2.0007
 Calling FoFJK, ICntrl=      2127 FMM=F ISym2X=0 I1Cent= 0 IOpClX= 0 NMat=1 NMatS=1 NMatT=0.
 ***** Axes restored to original set *****
 -------------------------------------------------------------------
 Center     Atomic                   Forces (Hartrees/Bohr)
 Number     Number              X              Y              Z
 -------------------------------------------------------------------
      1        6          -0.001152233    0.000072985    0.001763432
      2        6           0.000373232    0.000667446   -0.002020927
      3        1           0.000644910    0.000609531    0.000951741
      4        1          -0.000837691    0.000172204    0.001017602
      5        1           0.000565675   -0.001524056   -0.000082457
      6        6          -0.001049927   -0.000423924   -0.001416544
      7        1           0.001280228    0.001731340    0.000091535
      8        6          -0.000515424   -0.001699393    0.002286885
      9        1           0.000421973   -0.002085015    0.000338655
     10        6          -0.000414003    0.001743848   -0.002913796
     11        1           0.000430830    0.001943046    0.000145299
     12        6          -0.000016636   -0.000309704    0.001249433
     13        1           0.000262416   -0.001824890   -0.000113587
     14        6          -0.000185679    0.000628897   -0.001260057
     15        1           0.000070426    0.001937970   -0.000419918
     16        1           0.000118064   -0.001543584   -0.000129016
     17        1           0.000003839   -0.000096704    0.000511720
 -------------------------------------------------------------------
 Cartesian Forces:  Max     0.002913796 RMS     0.001133894

 GradGradGradGradGradGradGradGradGradGradGradGradGradGradGradGradGradGrad
 Berny optimization.
 Using GEDIIS/GDIIS optimizer.
 FormGI is forming the generalized inverse of G from B-inverse, IUseBI=4.
 Internal  Forces:  Max     0.003685389 RMS     0.001035590
 Search for a local minimum.
 Step number   2 out of a maximum of  102
 All quantities printed in internal units (Hartrees-Bohrs-Radians)
 Mixed Optimization -- RFO/linear search
 Update second derivatives using D2CorX and points    1    2
 DE= -3.11D-03 DEPred=-3.50D-03 R= 8.90D-01
 TightC=F SS=  1.41D+00  RLast= 2.19D-01 DXNew= 5.0454D-01 6.5706D-01
 Trust test= 8.90D-01 RLast= 2.19D-01 DXMaxT set to 5.05D-01
 ITU=  1  0
 Use linear search instead of GDIIS.
     Eigenvalues ---    0.00808   0.01491   0.01517   0.01673   0.02190
     Eigenvalues ---    0.02197   0.02202   0.02220   0.02856   0.02894
     Eigenvalues ---    0.02898   0.02903   0.07146   0.07210   0.15719
     Eigenvalues ---    0.15999   0.16000   0.16000   0.16000   0.16000
     Eigenvalues ---    0.16000   0.16000   0.16000   0.16592   0.21745
     Eigenvalues ---    0.22000   0.22000   0.22000   0.23398   0.33250
     Eigenvalues ---    0.34272   0.34325   0.34368   0.35009   0.35051
     Eigenvalues ---    0.35077   0.35121   0.35276   0.35339   0.37352
     Eigenvalues ---    0.39034   0.40061   0.55385   0.57165   0.57744
 RFO step:  Lambda=-5.85844010D-04 EMin= 8.08386791D-03
 Quartic linear search produced a step of -0.06323.
 Iteration  1 RMS(Cart)=  0.04007344 RMS(Int)=  0.00138623
 Iteration  2 RMS(Cart)=  0.00146041 RMS(Int)=  0.00000472
 Iteration  3 RMS(Cart)=  0.00000187 RMS(Int)=  0.00000449
 Iteration  4 RMS(Cart)=  0.00000000 RMS(Int)=  0.00000449
 Variable       Old X    -DE/DX   Delta X   Delta X   Delta X     New X
                                 (Linear)    (Quad)   (Total)
    R1        2.85177  -0.00369  -0.00176  -0.00699  -0.00875   2.84302
    R2        2.05433   0.00032   0.00083  -0.00075   0.00008   2.05441
    R3        2.05046   0.00021   0.00112  -0.00161  -0.00049   2.04996
    R4        2.04718   0.00106   0.00139   0.00017   0.00155   2.04873
    R5        2.50373   0.00053   0.00193  -0.00290  -0.00096   2.50277
    R6        2.03548   0.00157   0.00121   0.00180   0.00301   2.03849
    R7        2.76353  -0.00067  -0.00211   0.00252   0.00041   2.76394
    R8        2.03569   0.00167   0.00134   0.00183   0.00317   2.03886
    R9        2.51565  -0.00212   0.00129  -0.00600  -0.00470   2.51095
   R10        2.03472   0.00176   0.00131   0.00213   0.00344   2.03816
   R11        2.76325  -0.00007  -0.00228   0.00429   0.00201   2.76525
   R12        2.03460   0.00167   0.00137   0.00177   0.00313   2.03773
   R13        2.50164   0.00037   0.00180  -0.00289  -0.00109   2.50055
   R14        2.03419   0.00150   0.00135   0.00135   0.00269   2.03689
   R15        2.03100   0.00145   0.00128   0.00133   0.00261   2.03361
   R16        2.02944   0.00051   0.00134  -0.00128   0.00007   2.02951
    A1        1.94561  -0.00137  -0.00137  -0.00636  -0.00774   1.93787
    A2        1.94596  -0.00127  -0.00168  -0.00371  -0.00540   1.94056
    A3        1.94462   0.00008   0.00034   0.00050   0.00084   1.94546
    A4        1.86465   0.00115   0.00158   0.00222   0.00378   1.86843
    A5        1.88001   0.00057   0.00135  -0.00006   0.00128   1.88129
    A6        1.87918   0.00101  -0.00007   0.00805   0.00799   1.88717
    A7        2.18063  -0.00064  -0.00231   0.00184  -0.00047   2.18016
    A8        2.03390  -0.00047   0.00004  -0.00328  -0.00324   2.03065
    A9        2.06851   0.00111   0.00228   0.00148   0.00376   2.07228
   A10        2.17421  -0.00189  -0.00130  -0.00547  -0.00677   2.16744
   A11        2.07317   0.00226   0.00061   0.01045   0.01106   2.08423
   A12        2.03581  -0.00037   0.00068  -0.00498  -0.00430   2.03151
   A13        2.17241  -0.00091  -0.00252   0.00107  -0.00145   2.17096
   A14        2.03611  -0.00034   0.00090  -0.00450  -0.00359   2.03251
   A15        2.07466   0.00126   0.00161   0.00343   0.00504   2.07971
   A16        2.17271  -0.00188  -0.00128  -0.00545  -0.00673   2.16598
   A17        2.07638   0.00173   0.00090   0.00678   0.00768   2.08406
   A18        2.03409   0.00015   0.00038  -0.00133  -0.00095   2.03314
   A19        2.17284  -0.00065  -0.00205   0.00126  -0.00079   2.17206
   A20        2.03793  -0.00099   0.00153  -0.00928  -0.00775   2.03019
   A21        2.07241   0.00164   0.00052   0.00801   0.00853   2.08094
   A22        2.12180   0.00068   0.00060   0.00278   0.00338   2.12518
   A23        2.12285  -0.00023  -0.00114   0.00089  -0.00025   2.12260
   A24        2.03854  -0.00045   0.00054  -0.00367  -0.00313   2.03541
    D1       -1.63794  -0.00084   0.00265  -0.08770  -0.08505  -1.72299
    D2        1.48517  -0.00075   0.00363  -0.08524  -0.08162   1.40355
    D3        2.56299  -0.00053   0.00266  -0.08374  -0.08109   2.48190
    D4       -0.59709  -0.00044   0.00364  -0.08129  -0.07766  -0.67474
    D5        0.46294  -0.00100   0.00366  -0.09180  -0.08814   0.37480
    D6       -2.69714  -0.00091   0.00463  -0.08934  -0.08470  -2.78185
    D7        3.11186   0.00021   0.00209   0.00343   0.00553   3.11739
    D8       -0.03032   0.00016   0.00295  -0.00050   0.00244  -0.02789
    D9       -0.01091   0.00013   0.00111   0.00097   0.00209  -0.00882
   D10        3.13009   0.00008   0.00196  -0.00296  -0.00100   3.12909
   D11       -3.09648  -0.00027   0.00227  -0.02219  -0.01992  -3.11640
   D12        0.04621  -0.00039   0.00216  -0.02664  -0.02446   0.02175
   D13        0.04569  -0.00022   0.00143  -0.01834  -0.01692   0.02877
   D14       -3.09480  -0.00034   0.00132  -0.02278  -0.02146  -3.11627
   D15        3.13826  -0.00005   0.00052  -0.00335  -0.00283   3.13543
   D16       -0.00330   0.00000   0.00083  -0.00226  -0.00144  -0.00473
   D17       -0.00445   0.00007   0.00063   0.00119   0.00182  -0.00263
   D18        3.13718   0.00011   0.00093   0.00227   0.00321   3.14039
   D19       -3.12502  -0.00008   0.00072  -0.00691  -0.00619  -3.13121
   D20        0.01673  -0.00010   0.00083  -0.00802  -0.00719   0.00954
   D21        0.01653  -0.00012   0.00042  -0.00797  -0.00754   0.00899
   D22       -3.12490  -0.00014   0.00053  -0.00908  -0.00854  -3.13344
   D23       -0.00121   0.00003   0.00038  -0.00004   0.00034  -0.00087
   D24        3.14100  -0.00001   0.00018  -0.00067  -0.00049   3.14051
   D25        3.14022   0.00005   0.00026   0.00110   0.00136   3.14158
   D26       -0.00076   0.00002   0.00006   0.00047   0.00053  -0.00023
         Item               Value     Threshold  Converged?
 Maximum Force            0.003685     0.000450     NO 
 RMS     Force            0.001036     0.000300     NO 
 Maximum Displacement     0.168999     0.001800     NO 
 RMS     Displacement     0.040111     0.001200     NO 
 Predicted change in Energy=-3.208306D-04
 GradGradGradGradGradGradGradGradGradGradGradGradGradGradGradGradGradGrad

                          Input orientation:                          
 ---------------------------------------------------------------------
 Center     Atomic      Atomic             Coordinates (Angstroms)
 Number     Number       Type             X           Y           Z
 ---------------------------------------------------------------------
      1          6           0       -0.004335    0.041810   -0.021438
      2          6           0       -0.016657   -0.023234    1.481566
      3          1           0        1.001187    0.216105   -0.396192
      4          1           0       -0.624266    0.854945   -0.383755
      5          1           0       -0.366594   -0.880425   -0.461453
      6          6           0       -0.018431   -1.141013    2.191932
      7          1           0       -0.009976    0.921761    2.001739
      8          6           0       -0.001199   -1.185741    3.653761
      9          1           0       -0.036838   -2.092237    1.683115
     10          6           0        0.024713   -2.304566    4.370069
     11          1           0       -0.007246   -0.235348    4.163645
     12          6           0        0.049304   -2.341924    5.832694
     13          1           0        0.029719   -3.256985    3.864454
     14          6           0        0.086487   -3.451559    6.552605
     15          1           0        0.036358   -1.388555    6.335420
     16          1           0        0.100602   -4.424645    6.093272
     17          1           0        0.104307   -3.425855    7.626118
 ---------------------------------------------------------------------
                    Distance matrix (angstroms):
                    1          2          3          4          5
     1  C    0.000000
     2  C    1.504461   0.000000
     3  H    1.087149   2.149247   0.000000
     4  H    1.084793   2.149374   1.746530   0.000000
     5  H    1.084141   2.152337   1.754270   1.756115   0.000000
     6  C    2.509636   1.324406   3.095121   3.314369   2.688787
     7  H    2.206262   1.078721   2.696381   2.464224   3.072843
     8  C    3.874788   2.463756   4.401371   4.566634   4.142670
     9  H    2.731430   2.078895   3.275585   3.647314   2.485236
    10  C    4.979122   3.680983   5.479464   5.744782   5.052217
    11  H    4.194252   2.690470   4.691787   4.716810   4.683673
    12  C    6.321071   4.930821   6.800634   7.022671   6.474970
    13  H    5.097387   4.017144   5.582043   5.948356   4.951623
    14  C    7.445127   6.122049   7.910387   8.195379   7.484185
    15  H    6.515922   5.042501   6.987162   7.114564   6.827741
    16  H    7.572972   6.376049   8.028746   8.387573   7.466203
    17  H    8.397715   7.024812   8.855830   9.111208   8.491746
                    6          7          8          9         10
     6  C    0.000000
     7  H    2.071540   0.000000
     8  C    1.462615   2.677838   0.000000
     9  H    1.078917   3.030912   2.169436   0.000000
    10  C    2.469817   4.002421   1.328735   2.696033   0.000000
    11  H    2.169794   2.452090   1.078548   3.098700   2.079734
    12  C    3.834309   5.033028   2.467197   4.157977   1.463309
    13  H    2.697589   4.575281   2.082162   2.473723   1.078320
    14  C    4.936102   6.312338   3.680342   5.057163   2.466348
    15  H    4.151238   4.911262   2.689580   4.705791   2.168367
    16  H    5.100673   6.733270   4.056116   4.990842   2.733116
    17  H    5.896265   7.109744   4.561673   6.092433   3.444630
                   11         12         13         14         15
    11  H    0.000000
    12  C    2.688231   0.000000
    13  H    3.036638   2.170643   0.000000
    14  C    4.007484   1.323232   2.695782   0.000000
    15  H    2.459348   1.077875   3.097862   2.075011   0.000000
    16  H    4.613600   2.099585   2.517158   1.076142   3.046409
    17  H    4.709617   2.096258   3.766191   1.073968   2.412698
                   16         17
    16  H    0.000000
    17  H    1.829538   0.000000
 Stoichiometry    C7H10
 Framework group  C1[X(C7H10)]
 Deg. of freedom    45
 Full point group                 C1      NOp   1
 Largest Abelian subgroup         C1      NOp   1
 Largest concise Abelian subgroup C1      NOp   1
                         Standard orientation:                         
 ---------------------------------------------------------------------
 Center     Atomic      Atomic             Coordinates (Angstroms)
 Number     Number       Type             X           Y           Z
 ---------------------------------------------------------------------
      1          6           0        3.696992   -0.240174    0.020817
      2          6           0        2.336292    0.401198   -0.002453
      3          1           0        4.097401   -0.269232    1.031124
      4          1           0        4.403371    0.316836   -0.585439
      5          1           0        3.662300   -1.257921   -0.351137
      6          6           0        1.187825   -0.258043   -0.024347
      7          1           0        2.314977    1.479587    0.013741
      8          6           0       -0.127343    0.381902   -0.017511
      9          1           0        1.196335   -1.336560   -0.052427
     10          6           0       -1.281897   -0.275753   -0.011777
     11          1           0       -0.136882    1.460401   -0.013901
     12          6           0       -2.594434    0.371018    0.002514
     13          1           0       -1.277065   -1.354052   -0.016484
     14          6           0       -3.748045   -0.276927    0.019620
     15          1           0       -2.596168    1.448887   -0.000686
     16          1           0       -3.793907   -1.352085    0.023427
     17          1           0       -4.686701    0.244810    0.030610
 ---------------------------------------------------------------------
 Rotational constants (GHZ):     21.0464880      0.8163276      0.7896988
 Standard basis: 6-31G(d) (6D, 7F)
 There are   125 symmetry adapted cartesian basis functions of A   symmetry.
 There are   125 symmetry adapted basis functions of A   symmetry.
   125 basis functions,   236 primitive gaussians,   125 cartesian basis functions
    26 alpha electrons       26 beta electrons
       nuclear repulsion energy       252.8789192250 Hartrees.
 NAtoms=   17 NActive=   17 NUniq=   17 SFac= 1.00D+00 NAtFMM=   60 NAOKFM=F Big=F
 Integral buffers will be    131072 words long.
 Raffenetti 1 integral format.
 Two-electron integral symmetry is turned on.
 One-electron integrals computed using PRISM.
 NBasis=   125 RedAO= T EigKep=  2.07D-03  NBF=   125
 NBsUse=   125 1.00D-06 EigRej= -1.00D+00 NBFU=   125
 Initial guess from the checkpoint file:  "/blue/chm6586/le.chen/hw2/lumo_hf/Gau-84665.chk"
 B after Tr=     0.000000    0.000000    0.000000
         Rot=    0.999972    0.007531   -0.000168    0.000154 Ang=   0.86 deg.
 ExpMin= 1.61D-01 ExpMax= 3.05D+03 ExpMxC= 4.57D+02 IAcc=1 IRadAn=         1 AccDes= 0.00D+00
 Harris functional with IExCor=  205 and IRadAn=       1 diagonalized for initial guess.
 HarFok:  IExCor=  205 AccDes= 0.00D+00 IRadAn=         1 IDoV= 1 UseB2=F ITyADJ=14
 ICtDFT=  3500011 ScaDFX=  1.000000  1.000000  1.000000  1.000000
 FoFCou: FMM=F IPFlag=           0 FMFlag=      100000 FMFlg1=           0
         NFxFlg=           0 DoJE=T BraDBF=F KetDBF=T FulRan=T
         wScrn=  0.000000 ICntrl=     500 IOpCl=  0 I1Cent=   200000004 NGrid=           0
         NMat0=    1 NMatS0=      1 NMatT0=    0 NMatD0=    1 NMtDS0=    0 NMtDT0=    0
 Petite list used in FoFCou.
 Keep R1 ints in memory in canonical form, NReq=32079007.
 Requested convergence on RMS density matrix=1.00D-08 within 128 cycles.
 Requested convergence on MAX density matrix=1.00D-06.
 Requested convergence on             energy=1.00D-06.
 No special actions if energy rises.
 SCF Done:  E(RHF) =  -270.846878110     A.U. after   11 cycles
            NFock= 11  Conv=0.36D-08     -V/T= 2.0007
 Calling FoFJK, ICntrl=      2127 FMM=F ISym2X=0 I1Cent= 0 IOpClX= 0 NMat=1 NMatS=1 NMatT=0.
 ***** Axes restored to original set *****
 -------------------------------------------------------------------
 Center     Atomic                   Forces (Hartrees/Bohr)
 Number     Number              X              Y              Z
 -------------------------------------------------------------------
      1        6          -0.000250296   -0.000326598    0.000858442
      2        6          -0.000048238    0.000547083   -0.001206482
      3        1           0.000341795    0.000877934    0.000082135
      4        1          -0.000894453    0.000027383   -0.000076256
      5        1           0.000511806   -0.000504878   -0.000045340
      6        6          -0.001315960   -0.001012880    0.000409963
      7        1           0.001251715    0.000427514   -0.000018252
      8        6          -0.000018492    0.000947295   -0.000127449
      9        1           0.000341916   -0.000238602   -0.000005980
     10        6          -0.000158893   -0.001003531    0.000207925
     11        1           0.000191227    0.000352712    0.000020759
     12        6          -0.000077540    0.000579303   -0.000307483
     13        1           0.000117977   -0.000346113   -0.000036517
     14        6          -0.000049446   -0.000352546   -0.000274263
     15        1           0.000049857    0.000397251    0.000034299
     16        1           0.000008171   -0.000350562   -0.000094566
     17        1          -0.000001146   -0.000020765    0.000579065
 -------------------------------------------------------------------
 Cartesian Forces:  Max     0.001315960 RMS     0.000510402

 GradGradGradGradGradGradGradGradGradGradGradGradGradGradGradGradGradGrad
 Berny optimization.
 Using GEDIIS/GDIIS optimizer.
 FormGI is forming the generalized inverse of G from B-inverse, IUseBI=4.
 Internal  Forces:  Max     0.001103719 RMS     0.000371201
 Search for a local minimum.
 Step number   3 out of a maximum of  102
 All quantities printed in internal units (Hartrees-Bohrs-Radians)
 Mixed Optimization -- En-DIIS/RFO-DIIS
 Update second derivatives using D2CorX and points    1    2    3
 DE= -5.03D-04 DEPred=-3.21D-04 R= 1.57D+00
 TightC=F SS=  1.41D+00  RLast= 2.11D-01 DXNew= 8.4853D-01 6.3156D-01
 Trust test= 1.57D+00 RLast= 2.11D-01 DXMaxT set to 6.32D-01
 ITU=  1  1  0
 Use linear search instead of GDIIS.
     Eigenvalues ---    0.00215   0.01493   0.01517   0.01678   0.02198
     Eigenvalues ---    0.02205   0.02218   0.02228   0.02859   0.02895
     Eigenvalues ---    0.02898   0.02901   0.07243   0.07282   0.15957
     Eigenvalues ---    0.16000   0.16000   0.16000   0.16000   0.16000
     Eigenvalues ---    0.16000   0.16000   0.16050   0.17603   0.21754
     Eigenvalues ---    0.22000   0.22000   0.22051   0.24185   0.33558
     Eigenvalues ---    0.34316   0.34338   0.34450   0.35012   0.35052
     Eigenvalues ---    0.35081   0.35122   0.35313   0.35466   0.38202
     Eigenvalues ---    0.39079   0.40871   0.57064   0.57512   0.62273
 RFO step:  Lambda=-5.48506263D-04 EMin= 2.14934226D-03
 Quartic linear search produced a step of  1.49874.
 Iteration  1 RMS(Cart)=  0.09252406 RMS(Int)=  0.01966111
 Iteration  2 RMS(Cart)=  0.02413746 RMS(Int)=  0.00058164
 Iteration  3 RMS(Cart)=  0.00061257 RMS(Int)=  0.00001729
 Iteration  4 RMS(Cart)=  0.00000035 RMS(Int)=  0.00001729
 Variable       Old X    -DE/DX   Delta X   Delta X   Delta X     New X
                                 (Linear)    (Quad)   (Total)
    R1        2.84302  -0.00082  -0.01311   0.00180  -0.01131   2.83171
    R2        2.05441   0.00043   0.00012   0.00158   0.00170   2.05612
    R3        2.04996   0.00056  -0.00074   0.00233   0.00159   2.05155
    R4        2.04873   0.00028   0.00233  -0.00123   0.00110   2.04983
    R5        2.50277   0.00110  -0.00145   0.00199   0.00054   2.50331
    R6        2.03849   0.00037   0.00451  -0.00112   0.00339   2.04188
    R7        2.76394   0.00000   0.00061   0.00329   0.00390   2.76784
    R8        2.03886   0.00021   0.00475  -0.00256   0.00219   2.04105
    R9        2.51095   0.00098  -0.00705   0.00461  -0.00244   2.50850
   R10        2.03816   0.00032   0.00516  -0.00190   0.00326   2.04142
   R11        2.76525  -0.00007   0.00301   0.00227   0.00528   2.77053
   R12        2.03773   0.00032   0.00469  -0.00179   0.00291   2.04064
   R13        2.50055   0.00072  -0.00164   0.00062  -0.00101   2.49953
   R14        2.03689   0.00037   0.00404  -0.00122   0.00282   2.03971
   R15        2.03361   0.00036   0.00391  -0.00114   0.00277   2.03639
   R16        2.02951   0.00058   0.00010   0.00167   0.00177   2.03127
    A1        1.93787  -0.00025  -0.01160   0.00271  -0.00895   1.92892
    A2        1.94056  -0.00016  -0.00809   0.00283  -0.00530   1.93526
    A3        1.94546   0.00000   0.00126  -0.00039   0.00086   1.94632
    A4        1.86843   0.00013   0.00567  -0.00395   0.00163   1.87006
    A5        1.88129   0.00020   0.00191   0.00107   0.00297   1.88426
    A6        1.88717   0.00010   0.01197  -0.00258   0.00939   1.89656
    A7        2.18016   0.00022  -0.00071   0.00655   0.00585   2.18601
    A8        2.03065  -0.00035  -0.00486  -0.00309  -0.00796   2.02270
    A9        2.07228   0.00013   0.00564  -0.00351   0.00213   2.07440
   A10        2.16744  -0.00033  -0.01015   0.00227  -0.00788   2.15956
   A11        2.08423   0.00028   0.01658  -0.00368   0.01289   2.09712
   A12        2.03151   0.00006  -0.00644   0.00143  -0.00501   2.02650
   A13        2.17096  -0.00021  -0.00218   0.00274   0.00056   2.17152
   A14        2.03251  -0.00004  -0.00539  -0.00058  -0.00598   2.02653
   A15        2.07971   0.00025   0.00756  -0.00213   0.00542   2.08512
   A16        2.16598  -0.00044  -0.01009   0.00106  -0.00903   2.15696
   A17        2.08406   0.00035   0.01152  -0.00135   0.01017   2.09423
   A18        2.03314   0.00009  -0.00143   0.00029  -0.00114   2.03200
   A19        2.17206  -0.00022  -0.00118   0.00148   0.00030   2.17235
   A20        2.03019  -0.00005  -0.01161   0.00061  -0.01100   2.01918
   A21        2.08094   0.00027   0.01279  -0.00208   0.01071   2.09165
   A22        2.12518   0.00006   0.00507  -0.00194   0.00313   2.12831
   A23        2.12260   0.00000  -0.00037   0.00210   0.00172   2.12432
   A24        2.03541  -0.00007  -0.00470  -0.00016  -0.00485   2.03055
    D1       -1.72299  -0.00076  -0.12747  -0.13170  -0.25913  -1.98212
    D2        1.40355  -0.00076  -0.12232  -0.13570  -0.25800   1.14556
    D3        2.48190  -0.00065  -0.12154  -0.13038  -0.25195   2.22996
    D4       -0.67474  -0.00065  -0.11639  -0.13438  -0.25081  -0.92555
    D5        0.37480  -0.00067  -0.13210  -0.12877  -0.26085   0.11395
    D6       -2.78185  -0.00067  -0.12695  -0.13277  -0.25971  -3.04156
    D7        3.11739   0.00007   0.00828  -0.00155   0.00675   3.12414
    D8       -0.02789   0.00012   0.00365   0.00445   0.00810  -0.01978
    D9       -0.00882   0.00008   0.00313   0.00253   0.00566  -0.00316
   D10        3.12909   0.00013  -0.00150   0.00853   0.00701   3.13610
   D11       -3.11640  -0.00016  -0.02986  -0.01586  -0.04571   3.12107
   D12        0.02175  -0.00011  -0.03667  -0.00744  -0.04409  -0.02234
   D13        0.02877  -0.00021  -0.02536  -0.02168  -0.04706  -0.01828
   D14       -3.11627  -0.00016  -0.03217  -0.01326  -0.04543   3.12149
   D15        3.13543   0.00011  -0.00424   0.01060   0.00636  -3.14140
   D16       -0.00473   0.00008  -0.00216   0.00671   0.00454  -0.00019
   D17       -0.00263   0.00005   0.00273   0.00196   0.00470   0.00207
   D18        3.14039   0.00003   0.00481  -0.00193   0.00289  -3.13991
   D19       -3.13121  -0.00007  -0.00928  -0.00776  -0.01704   3.13493
   D20        0.00954  -0.00006  -0.01078  -0.00626  -0.01703  -0.00749
   D21        0.00899  -0.00005  -0.01131  -0.00397  -0.01528  -0.00629
   D22       -3.13344  -0.00004  -0.01280  -0.00247  -0.01527   3.13448
   D23       -0.00087   0.00001   0.00051  -0.00015   0.00036  -0.00051
   D24        3.14051   0.00002  -0.00074   0.00138   0.00064   3.14114
   D25        3.14158   0.00000   0.00204  -0.00169   0.00036  -3.14125
   D26       -0.00023   0.00000   0.00080  -0.00016   0.00063   0.00041
         Item               Value     Threshold  Converged?
 Maximum Force            0.001104     0.000450     NO 
 RMS     Force            0.000371     0.000300     NO 
 Maximum Displacement     0.479432     0.001800     NO 
 RMS     Displacement     0.112787     0.001200     NO 
 Predicted change in Energy=-6.994333D-04
 GradGradGradGradGradGradGradGradGradGradGradGradGradGradGradGradGradGrad

                          Input orientation:                          
 ---------------------------------------------------------------------
 Center     Atomic      Atomic             Coordinates (Angstroms)
 Number     Number       Type             X           Y           Z
 ---------------------------------------------------------------------
      1          6           0       -0.021441    0.051615   -0.016463
      2          6           0        0.001950   -0.033101    1.479432
      3          1           0        0.911234    0.469810   -0.389403
      4          1           0       -0.821871    0.702373   -0.354736
      5          1           0       -0.154136   -0.925580   -0.468248
      6          6           0        0.001193   -1.156342    2.181671
      7          1           0        0.034242    0.910426    2.005010
      8          6           0        0.045759   -1.200783    3.644998
      9          1           0       -0.035812   -2.111086    1.678029
     10          6           0        0.023136   -2.317182    4.362803
     11          1           0        0.102253   -0.246511    4.148154
     12          6           0        0.068390   -2.340322    5.828025
     13          1           0       -0.031661   -3.275703    3.868509
     14          6           0        0.039581   -3.441292    6.560526
     15          1           0        0.129938   -1.376280    6.309550
     16          1           0       -0.021209   -4.420800    6.115428
     17          1           0        0.075589   -3.406707    7.634269
 ---------------------------------------------------------------------
                    Distance matrix (angstroms):
                    1          2          3          4          5
     1  C    0.000000
     2  C    1.498475   0.000000
     3  H    1.088050   2.138285   0.000000
     4  H    1.085634   2.140976   1.748982   0.000000
     5  H    1.084725   2.148102   1.757368   1.763232   0.000000
     6  C    2.508280   1.324692   3.175369   3.250479   2.664479
     7  H    2.197046   1.080517   2.587754   2.518852   3.086002
     8  C    3.870312   2.460706   4.451553   4.513607   4.127285
     9  H    2.747506   2.087795   3.439796   3.558873   2.454777
    10  C    4.979072   3.678492   5.580279   5.664532   5.030610
    11  H    4.177106   2.679119   4.664439   4.693655   4.673119
    12  C    6.315653   4.923204   6.874855   6.948171   6.457094
    13  H    5.115091   4.027813   5.748716   5.855366   4.934120
    14  C    7.447208   6.118389   8.022344   8.107583   7.467931
    15  H    6.486929   5.015032   6.992457   7.045527   6.798704
    16  H    7.589637   6.383172   8.191480   8.291621   7.455134
    17  H    8.396614   7.019164   8.950140   9.028520   8.477001
                    6          7          8          9         10
     6  C    0.000000
     7  H    2.074567   0.000000
     8  C    1.464680   2.673368   0.000000
     9  H    1.080075   3.039960   2.168934   0.000000
    10  C    2.470905   3.997094   1.327442   2.693318   0.000000
    11  H    2.169116   2.436431   1.080275   3.097939   2.083270
    12  C    3.834347   5.018363   2.462654   4.157628   1.466103
    13  H    2.708910   4.582646   2.088359   2.480837   1.079858
    14  C    4.939316   6.300016   3.676985   5.061018   2.468578
    15  H    4.135739   4.875166   2.671652   4.692377   2.164839
    16  H    5.111911   6.732056   4.059066   5.002549   2.738406
    17  H    5.899196   7.094217   4.558649   6.096544   3.448522
                   11         12         13         14         15
    11  H    0.000000
    12  C    2.684615   0.000000
    13  H    3.045019   2.173626   0.000000
    14  C    4.003760   1.322695   2.698046   0.000000
    15  H    2.439012   1.079367   3.097193   2.082169   0.000000
    16  H    4.616287   2.102146   2.521904   1.077610   3.054445
    17  H    4.705375   2.097558   3.769565   1.074904   2.424968
                   16         17
    16  H    0.000000
    17  H    1.828834   0.000000
 Stoichiometry    C7H10
 Framework group  C1[X(C7H10)]
 Deg. of freedom    45
 Full point group                 C1      NOp   1
 Largest Abelian subgroup         C1      NOp   1
 Largest concise Abelian subgroup C1      NOp   1
                         Standard orientation:                         
 ---------------------------------------------------------------------
 Center     Atomic      Atomic             Coordinates (Angstroms)
 Number     Number       Type             X           Y           Z
 ---------------------------------------------------------------------
      1          6           0        3.697077   -0.225410    0.001802
      2          6           0        2.333083    0.394796   -0.015334
      3          1           0        4.212779    0.012938    0.929754
      4          1           0        4.306667    0.157819   -0.810686
      5          1           0        3.644102   -1.305475   -0.083524
      6          6           0        1.189252   -0.273137    0.002710
      7          1           0        2.306031    1.474856   -0.031275
      8          6           0       -0.127388    0.368529    0.006267
      9          1           0        1.191714   -1.353153    0.013698
     10          6           0       -1.281613   -0.287097    0.001777
     11          1           0       -0.129825    1.448768    0.014779
     12          6           0       -2.590035    0.374323    0.005223
     13          1           0       -1.289013   -1.366908   -0.005148
     14          6           0       -3.750041   -0.261109   -0.006412
     15          1           0       -2.568828    1.453392    0.019070
     16          1           0       -3.810695   -1.336925   -0.020022
     17          1           0       -4.684948    0.269319   -0.002844
 ---------------------------------------------------------------------
 Rotational constants (GHZ):     21.2172062      0.8167578      0.7902875
 Standard basis: 6-31G(d) (6D, 7F)
 There are   125 symmetry adapted cartesian basis functions of A   symmetry.
 There are   125 symmetry adapted basis functions of A   symmetry.
   125 basis functions,   236 primitive gaussians,   125 cartesian basis functions
    26 alpha electrons       26 beta electrons
       nuclear repulsion energy       252.9259467817 Hartrees.
 NAtoms=   17 NActive=   17 NUniq=   17 SFac= 1.00D+00 NAtFMM=   60 NAOKFM=F Big=F
 Integral buffers will be    131072 words long.
 Raffenetti 1 integral format.
 Two-electron integral symmetry is turned on.
 One-electron integrals computed using PRISM.
 NBasis=   125 RedAO= T EigKep=  2.04D-03  NBF=   125
 NBsUse=   125 1.00D-06 EigRej= -1.00D+00 NBFU=   125
 Initial guess from the checkpoint file:  "/blue/chm6586/le.chen/hw2/lumo_hf/Gau-84665.chk"
 B after Tr=     0.000000    0.000000    0.000000
         Rot=    0.999784    0.020778   -0.000515    0.000186 Ang=   2.38 deg.
 ExpMin= 1.61D-01 ExpMax= 3.05D+03 ExpMxC= 4.57D+02 IAcc=1 IRadAn=         1 AccDes= 0.00D+00
 Harris functional with IExCor=  205 and IRadAn=       1 diagonalized for initial guess.
 HarFok:  IExCor=  205 AccDes= 0.00D+00 IRadAn=         1 IDoV= 1 UseB2=F ITyADJ=14
 ICtDFT=  3500011 ScaDFX=  1.000000  1.000000  1.000000  1.000000
 FoFCou: FMM=F IPFlag=           0 FMFlag=      100000 FMFlg1=           0
         NFxFlg=           0 DoJE=T BraDBF=F KetDBF=T FulRan=T
[...]
 ! D2    D(3,1,2,7)             59.3634         -DE/DX =    0.0                 !
 ! D3    D(4,1,2,6)            120.5875         -DE/DX =    0.0                 !
 ! D4    D(4,1,2,7)            -59.412          -DE/DX =    0.0                 !
 ! D5    D(5,1,2,6)             -0.0274         -DE/DX =    0.0                 !
 ! D6    D(5,1,2,7)           -180.0269         -DE/DX =    0.0                 !
 ! D7    D(1,2,6,8)           -179.9973         -DE/DX =    0.0                 !
 ! D8    D(1,2,6,9)              0.002          -DE/DX =    0.0                 !
 ! D9    D(7,2,6,8)              0.0023         -DE/DX =    0.0                 !
 ! D10   D(7,2,6,9)            180.0015         -DE/DX =    0.0                 !
 ! D11   D(2,6,8,10)          -180.0117         -DE/DX =    0.0                 !
 ! D12   D(2,6,8,11)            -0.0136         -DE/DX =    0.0                 !
 ! D13   D(9,6,8,10)            -0.0109         -DE/DX =    0.0                 !
 ! D14   D(9,6,8,11)          -180.0128         -DE/DX =    0.0                 !
 ! D15   D(6,8,10,12)          179.9978         -DE/DX =    0.0                 !
 ! D16   D(6,8,10,13)           -0.0008         -DE/DX =    0.0                 !
 ! D17   D(11,8,10,12)          -0.0003         -DE/DX =    0.0                 !
 ! D18   D(11,8,10,13)        -179.9989         -DE/DX =    0.0                 !
 ! D19   D(8,10,12,14)        -180.0124         -DE/DX =    0.0                 !
 ! D20   D(8,10,12,15)          -0.0038         -DE/DX =    0.0                 !
 ! D21   D(13,10,12,14)         -0.0137         -DE/DX =    0.0                 !
 ! D22   D(13,10,12,15)        179.9948         -DE/DX =    0.0                 !
 ! D23   D(10,12,14,16)         -0.0037         -DE/DX =    0.0                 !
 ! D24   D(10,12,14,17)        180.0138         -DE/DX =    0.0                 !
 ! D25   D(15,12,14,16)       -180.0125         -DE/DX =    0.0                 !
 ! D26   D(15,12,14,17)          0.0049         -DE/DX =    0.0                 !
 --------------------------------------------------------------------------------
 GradGradGradGradGradGradGradGradGradGradGradGradGradGradGradGradGradGrad

                          Input orientation:                          
 ---------------------------------------------------------------------
 Center     Atomic      Atomic             Coordinates (Angstroms)
 Number     Number       Type             X           Y           Z
 ---------------------------------------------------------------------
      1          6           0       -0.019714    0.043314   -0.020102
      2          6           0        0.029630   -0.028468    1.478216
      3          1           0        0.866241    0.533956   -0.415482
      4          1           0       -0.877860    0.621311   -0.353971
      5          1           0       -0.084796   -0.944089   -0.463407
      6          6           0       -0.001666   -1.145837    2.190022
      7          1           0        0.095673    0.916658    1.995669
      8          6           0        0.047758   -1.188978    3.651284
      9          1           0       -0.067563   -2.096212    1.683489
     10          6           0        0.016438   -2.307121    4.369856
     11          1           0        0.113870   -0.238849    4.158118
     12          6           0        0.066385   -2.341383    5.831895
     13          1           0       -0.049604   -3.259556    3.867832
     14          6           0        0.035512   -3.449485    6.555410
     15          1           0        0.132460   -1.387324    6.330052
     16          1           0       -0.030241   -4.422587    6.099571
     17          1           0        0.074613   -3.422816    7.629100
 ---------------------------------------------------------------------
                    Distance matrix (angstroms):
                    1          2          3          4          5
     1  C    0.000000
     2  C    1.500848   0.000000
     3  H    1.087185   2.145304   0.000000
     4  H    1.087181   2.145381   1.747370   0.000000
     5  H    1.084306   2.149733   1.758234   1.758238   0.000000
     6  C    2.509791   1.325202   3.219257   3.219073   2.662386
     7  H    2.199858   1.079529   2.560055   2.560431   3.089012
     8  C    3.873263   2.463602   4.491881   4.491768   4.124102
     9  H    2.735339   2.080179   3.492199   3.491812   2.436564
    10  C    4.979717   3.681578   5.629684   5.629390   5.022802
    11  H    4.189866   2.689467   4.699053   4.699186   4.679244
    12  C    6.319815   4.930055   6.923659   6.923445   6.450280
    13  H    5.101556   4.019512   5.794505   5.794028   4.911442
    14  C    7.445807   6.122196   8.071632   8.071256   7.453541
    15  H    6.511093   5.039581   7.052090   7.052058   6.811368
    16  H    7.575934   6.377208   8.235102   8.234535   7.428028
    17  H    8.398406   7.025453   8.999889   8.999532   8.465114
                    6          7          8          9         10
     6  C    0.000000
     7  H    2.073917   0.000000
     8  C    1.462733   2.679003   0.000000
     9  H    1.078949   3.033395   2.169928   0.000000
    10  C    2.469936   4.004471   1.329501   2.695943   0.000000
    11  H    2.170109   2.451879   1.078886   3.099436   2.081363
    12  C    3.833693   5.033122   2.466465   4.157802   1.463293
    13  H    2.699103   4.578959   2.084147   2.474883   1.078668
    14  C    4.936070   6.313324   3.680217   5.057429   2.466172
    15  H    4.149235   4.908825   2.687436   4.704580   2.168375
    16  H    5.101223   6.735384   4.056652   4.991512   2.733000
    17  H    5.896949   7.111049   4.562212   6.093470   3.445406
                   11         12         13         14         15
    11  H    0.000000
    12  C    2.687831   0.000000
    13  H    3.039023   2.171184   0.000000
    14  C    4.007659   1.323751   2.695624   0.000000
    15  H    2.456957   1.078311   3.098536   2.076702   0.000000
    16  H    4.614506   2.100570   2.516679   1.076587   3.048346
    17  H    4.710297   2.097501   3.766857   1.074732   2.415387
                   16         17
    16  H    0.000000
    17  H    1.830299   0.000000
 Stoichiometry    C7H10
 Framework group  C1[X(C7H10)]
 Deg. of freedom    45
 Full point group                 C1      NOp   1
 Largest Abelian subgroup         C1      NOp   1
 Largest concise Abelian subgroup C1      NOp   1
                         Standard orientation:                         
 ---------------------------------------------------------------------
 Center     Atomic      Atomic             Coordinates (Angstroms)
 Number     Number       Type             X           Y           Z
 ---------------------------------------------------------------------
      1          6           0        3.696912   -0.236541   -0.000099
      2          6           0        2.336509    0.397372   -0.000086
      3          1           0        4.268149    0.068222    0.873274
      4          1           0        4.267757    0.067149   -0.874095
      5          1           0        3.631091   -1.318847    0.000588
      6          6           0        1.187254   -0.262457    0.000142
      7          1           0        2.317023    1.476725   -0.000289
      8          6           0       -0.127029    0.379607    0.000091
      9          1           0        1.194631   -1.341381    0.000371
     10          6           0       -1.282634   -0.277772    0.000095
     11          1           0       -0.134789    1.458466    0.000079
     12          6           0       -2.593484    0.372534    0.000091
     13          1           0       -1.280207   -1.356437    0.000125
     14          6           0       -3.748803   -0.273652   -0.000142
     15          1           0       -2.591734    1.450843    0.000148
     16          1           0       -3.796875   -1.349165   -0.000407
     17          1           0       -4.687396    0.249887   -0.000354
 ---------------------------------------------------------------------
 Rotational constants (GHZ):     21.1133935      0.8162835      0.7896780

 **********************************************************************

            Population analysis using the SCF density.

 **********************************************************************

 Orbital symmetries:
       Occupied  (A) (A) (A) (A) (A) (A) (A) (A) (A) (A) (A) (A)
                 (A) (A) (A) (A) (A) (A) (A) (A) (A) (A) (A) (A)
                 (A) (A)
       Virtual   (A) (A) (A) (A) (A) (A) (A) (A) (A) (A) (A) (A)
                 (A) (A) (A) (A) (A) (A) (A) (A) (A) (A) (A) (A)
                 (A) (A) (A) (A) (A) (A) (A) (A) (A) (A) (A) (A)
                 (A) (A) (A) (A) (A) (A) (A) (A) (A) (A) (A) (A)
                 (A) (A) (A) (A) (A) (A) (A) (A) (A) (A) (A) (A)
                 (A) (A) (A) (A) (A) (A) (A) (A) (A) (A) (A) (A)
                 (A) (A) (A) (A) (A) (A) (A) (A) (A) (A) (A) (A)
                 (A) (A) (A) (A) (A) (A) (A) (A) (A) (A) (A) (A)
                 (A) (A) (A)
 The electronic state is 1-A.
 Alpha  occ. eigenvalues --  -11.23151 -11.23125 -11.23103 -11.22760 -11.22557
 Alpha  occ. eigenvalues --  -11.22084 -11.21885  -1.10721  -1.06732  -1.00685
 Alpha  occ. eigenvalues --   -0.93019  -0.81595  -0.75782  -0.74798  -0.65010
 Alpha  occ. eigenvalues --   -0.63973  -0.58300  -0.57712  -0.56945  -0.53248
 Alpha  occ. eigenvalues --   -0.52540  -0.50058  -0.48005  -0.45687  -0.38417
 Alpha  occ. eigenvalues --   -0.28526
 Alpha virt. eigenvalues --    0.11054   0.22241   0.24487   0.25959   0.27565
 Alpha virt. eigenvalues --    0.28203   0.28911   0.30132   0.31771   0.32637
 Alpha virt. eigenvalues --    0.33837   0.35406   0.36193   0.43160   0.49856
 Alpha virt. eigenvalues --    0.51616   0.53767   0.57135   0.62980   0.68112
 Alpha virt. eigenvalues --    0.69896   0.74239   0.76199   0.79026   0.80874
 Alpha virt. eigenvalues --    0.80996   0.81944   0.86297   0.86324   0.88379
 Alpha virt. eigenvalues --    0.88873   0.94358   0.95586   0.96518   0.97191
 Alpha virt. eigenvalues --    1.04179   1.10901   1.12662   1.13330   1.15756
 Alpha virt. eigenvalues --    1.16263   1.16370   1.17448   1.20617   1.21391
 Alpha virt. eigenvalues --    1.23265   1.24320   1.25863   1.30350   1.31081
 Alpha virt. eigenvalues --    1.36922   1.41421   1.51383   1.53701   1.60122
 Alpha virt. eigenvalues --    1.61514   1.61744   1.65312   1.67973   1.73301
 Alpha virt. eigenvalues --    1.75754   1.85616   1.95924   2.04340   2.07314
 Alpha virt. eigenvalues --    2.13087   2.14146   2.21539   2.21637   2.27075
 Alpha virt. eigenvalues --    2.32526   2.35121   2.35597   2.43890   2.49595
 Alpha virt. eigenvalues --    2.53072   2.54997   2.60376   2.67226   2.69319
 Alpha virt. eigenvalues --    2.70808   2.74951   2.78022   2.83977   2.84406
 Alpha virt. eigenvalues --    2.93485   3.06907   3.20453   3.24074   3.29198
 Alpha virt. eigenvalues --    3.44937   3.46382   4.52927   4.54049   4.57763
 Alpha virt. eigenvalues --    4.61750   4.73563   4.83287   4.95248
          Condensed to atoms (all electrons):
               1          2          3          4          5          6
     1  C    5.075897   0.337942   0.390484   0.390479   0.397432  -0.040751
     2  C    0.337942   4.982552  -0.039627  -0.039616  -0.045697   0.674499
     3  H    0.390484  -0.039627   0.537623  -0.034070  -0.025197  -0.000954
     4  H    0.390479  -0.039616  -0.034070   0.537603  -0.025196  -0.000960
     5  H    0.397432  -0.045697  -0.025197  -0.025196   0.518150   0.001343
     6  C   -0.040751   0.674499  -0.000954  -0.000960   0.001343   4.870244
     7  H   -0.038433   0.393188  -0.000652  -0.000647   0.002997  -0.044140
     8  C    0.002592  -0.048929  -0.000067  -0.000067   0.000194   0.409285
     9  H   -0.003955  -0.038576   0.000079   0.000079   0.003195   0.390517
    10  C   -0.000087   0.000555   0.000003   0.000003  -0.000003  -0.045815
    11  H    0.000020  -0.000064   0.000000   0.000000   0.000008  -0.039745
    12  C    0.000001  -0.000097   0.000000   0.000000   0.000000   0.002166
    13  H   -0.000004   0.000193   0.000000   0.000000   0.000000  -0.002795
    14  C    0.000000   0.000002   0.000000   0.000000   0.000000  -0.000092
    15  H    0.000000  -0.000002   0.000000   0.000000   0.000000   0.000090
    16  H    0.000000   0.000000   0.000000   0.000000   0.000000  -0.000001
    17  H    0.000000   0.000000   0.000000   0.000000   0.000000   0.000001
               7          8          9         10         11         12
     1  C   -0.038433   0.002592  -0.003955  -0.000087   0.000020   0.000001
     2  C    0.393188  -0.048929  -0.038576   0.000555  -0.000064  -0.000097
     3  H   -0.000652  -0.000067   0.000079   0.000003   0.000000   0.000000
     4  H   -0.000647  -0.000067   0.000079   0.000003   0.000000   0.000000
     5  H    0.002997   0.000194   0.003195  -0.000003   0.000008   0.000000
     6  C   -0.044140   0.409285   0.390517  -0.045815  -0.039745   0.002166
     7  H    0.506359  -0.002799   0.003701   0.000203   0.003318  -0.000001
     8  C   -0.002799   4.898069  -0.041009   0.658237   0.390276  -0.044921
     9  H    0.003701  -0.041009   0.499111   0.000042   0.002787   0.000085
    10  C    0.000203   0.658237   0.000042   4.915035  -0.041108   0.412724
    11  H    0.003318   0.390276   0.002787  -0.041108   0.496286  -0.002830
    12  C   -0.000001  -0.044921   0.000085   0.412724  -0.002830   4.847200
    13  H    0.000011  -0.040280   0.003052   0.390174   0.003514  -0.038504
    14  C    0.000000   0.000489  -0.000002  -0.050648   0.000184   0.641756
    15  H    0.000000   0.000363   0.000006  -0.043664   0.003187   0.393260
    16  H    0.000000   0.000151   0.000000  -0.002885   0.000010  -0.045246
    17  H    0.000000  -0.000073   0.000000   0.002479  -0.000005  -0.035131
              13         14         15         16         17
     1  C   -0.000004   0.000000   0.000000   0.000000   0.000000
     2  C    0.000193   0.000002  -0.000002   0.000000   0.000000
     3  H    0.000000   0.000000   0.000000   0.000000   0.000000
     4  H    0.000000   0.000000   0.000000   0.000000   0.000000
     5  H    0.000000   0.000000   0.000000   0.000000   0.000000
     6  C   -0.002795  -0.000092   0.000090  -0.000001   0.000001
     7  H    0.000011   0.000000   0.000000   0.000000   0.000000
     8  C   -0.040280   0.000489   0.000363   0.000151  -0.000073
     9  H    0.003052  -0.000002   0.000006   0.000000   0.000000
    10  C    0.390174  -0.050648  -0.043664  -0.002885   0.002479
    11  H    0.003514   0.000184   0.003187   0.000010  -0.000005
    12  C   -0.038504   0.641756   0.393260  -0.045246  -0.035131
    13  H    0.494952  -0.000079   0.002796   0.002908  -0.000029
    14  C   -0.000079   5.068977  -0.036976   0.397126   0.395212
    15  H    0.002796  -0.036976   0.495985   0.003314  -0.003477
    16  H    0.002908   0.397126   0.003314   0.496567  -0.027127
    17  H   -0.000029   0.395212  -0.003477  -0.027127   0.488034
 Mulliken charges:
               1
     1  C   -0.511618
     2  C   -0.176323
     3  H    0.172378
     4  H    0.172394
     5  H    0.172775
     6  C   -0.172890
     7  H    0.176896
     8  C   -0.181513
     9  H    0.180889
    10  C   -0.195247
    11  H    0.184162
    12  C   -0.130462
    13  H    0.184090
    14  C   -0.415950
    15  H    0.185119
    16  H    0.175183
    17  H    0.180116
 Sum of Mulliken charges =   0.00000
 Mulliken charges with hydrogens summed into heavy atoms:
               1
     1  C    0.005930
     2  C    0.000573
     6  C    0.007999
     8  C    0.002649
    10  C   -0.011157
    12  C    0.054657
    14  C   -0.060651
 Electronic spatial extent (au):  <R**2>=           1446.9722
 Charge=              0.0000 electrons
 Dipole moment (field-independent basis, Debye):
    X=              0.5981    Y=              0.1107    Z=             -0.0003  Tot=              0.6083
 Quadrupole moment (field-independent basis, Debye-Ang):
   XX=            -39.9078   YY=            -39.8290   ZZ=            -48.2313
   XY=              0.4281   XZ=              0.0010   YZ=             -0.0002
 Traceless Quadrupole moment (field-independent basis, Debye-Ang):
   XX=              2.7483   YY=              2.8270   ZZ=             -5.5753
   XY=              0.4281   XZ=              0.0010   YZ=             -0.0002
 Octapole moment (field-independent basis, Debye-Ang**2):
  XXX=              0.3912  YYY=             -0.0346  ZZZ=             -0.0017  XYY=             -2.0532
  XXY=              1.6650  XXZ=             -0.0092  XZZ=              5.6273  YZZ=              0.1789
  YYZ=              0.0006  XYZ=             -0.0020
 Hexadecapole moment (field-independent basis, Debye-Ang**3):
 XXXX=          -1735.3441 YYYY=           -112.7825 ZZZZ=            -57.9988 XXXY=              3.5447
 XXXZ=              0.0286 YYYX=              0.9594 YYYZ=             -0.0016 ZZZX=             -0.0045
 ZZZY=              0.0003 XXYY=           -309.4119 XXZZ=           -337.1410 YYZZ=            -32.1561
 XXYZ=              0.0058 YYXZ=              0.0049 ZZXY=              0.7925
 N-N= 2.528766901747D+02 E-N=-1.135693611374D+03  KE= 2.706531047621D+02
 B after Tr=    -0.020988    0.022564    0.005833
         Rot=    0.999910   -0.000720    0.004763   -0.012504 Ang=  -1.54 deg.
 Final structure in terms of initial Z-matrix:
 C
 C,1,B1
 H,1,B2,2,A2
 H,1,B3,2,A3,3,D3,0
 H,1,B4,2,A4,3,D4,0
 C,2,B5,1,A5,3,D5,0
 H,2,B6,1,A6,3,D6,0
 C,6,B7,2,A7,1,D7,0
 H,6,B8,2,A8,1,D8,0
 C,8,B9,6,A9,2,D9,0
 H,8,B10,6,A10,2,D10,0
 C,10,B11,8,A11,6,D11,0
 H,10,B12,8,A12,6,D12,0
 C,12,B13,10,A13,8,D13,0
 H,12,B14,10,A14,8,D14,0
 H,14,B15,12,A15,10,D15,0
 H,14,B16,12,A16,10,D16,0
      Variables:
 B1=1.50084758
 B2=1.0871853
 A2=110.96836096
 B3=1.08718125
 A3=110.97482512
 D3=-118.77534631
 B4=1.08430555
 A4=111.50414137
 D4=120.60968294
 B5=1.32520166
 A5=125.15396229
 D5=-120.63711066
 B6=1.07952861
 A6=116.01857229
 D6=59.36337256
 B7=1.46273307
 A7=124.10145762
 D7=-179.99725095
 B8=1.07894911
 A8=119.46999711
 D8=0.00197995
 B9=1.3295006
 A9=124.32928357
 D9=179.98830649
 B10=1.07888645
 A10=116.44891032
 D10=-0.01356049
 B11=1.46329268
 A11=123.98032642
 D11=179.99778862
 B12=1.07866761
 A12=119.50494012
 D12=-0.0008451
 B13=1.32375113
 A13=124.39533072
 D13=179.98759052
 B14=1.07831054
 A14=116.29275941
 D14=-0.00382621
 B15=1.07658714
 A15=121.77811937
 D15=-0.00369931
 B16=1.07473232
 A16=121.62873522
 D16=-179.9862255
 1\1\GINC-C0704A-S1\FOpt\RHF\6-31G(d)\C7H10\LE.CHEN\23-Sep-2021\0\\#n R
 HF/6-31G(d) Opt=(MaxCyc=500)\\Title\\0,1\C,-0.0150390139,0.0391151159,
 -0.0219703148\C,0.0343052304,-0.0326670095,1.4763473896\H,0.8709160348
 ,0.5297577082,-0.4173503577\H,-0.8731845756,0.6171119157,-0.3558399848
 \H,-0.0801211023,-0.9482873183,-0.465275269\C,0.00300983,-1.1500352734
 ,2.1881536777\H,0.100348155,0.91245888,1.9938001975\C,0.0524329896,-1.
 1931762998,3.6494148563\H,-0.0628879587,-2.1004103897,1.6816205609\C,0
 .0211129114,-2.3113193547,4.3679877514\H,0.1185453783,-0.2430478624,4.
 1562492326\C,0.0710606761,-2.3455817026,5.8300263202\H,-0.0449289269,-
 3.2637551742,3.8659635441\C,0.0401876535,-3.4536837466,6.5535412008\H,
 0.1371352212,-1.3915231144,6.3281829151\H,-0.025565172,-4.4267855673,6
 .0977020956\H,0.0792884168,-3.4270143952,7.6272308327\\Version=AS64L-G
 09RevD.01\State=1-A\HF=-270.8477578\RMSD=2.110e-09\RMSF=6.687e-06\Dipo
 le=0.0007323,0.1478623,-0.1881584\Quadrupole=-4.1216324,2.3346268,1.78
 70056,0.3230393,0.2005059,-0.1676343\PG=C01 [X(C7H10)]\\@


 "PERFECTION IS NOT AN ACCIDENT"
         --  EAGLE ELECTRIC MANUFACTURING CO.,INC. NY
 Job cpu time:       0 days  0 hours  3 minutes 10.8 seconds.
 File lengths (MBytes):  RWF=      9 Int=      0 D2E=      0 Chk=      2 Scr=      1
 Normal termination of Gaussian 09 at Thu Sep 23 22:36:07 2021.
