 Entering Gaussian System, Link 0=g09
 Initial command:
 /apps/gaussian/g09/amd-sse4a/l1.exe "/blue/chm6586/le.chen/classwork/water_avogadro/pvdz/Gau-83967.inp" -scrdir="/blue/chm6586/le.chen/classwork/water_avogadro/pvdz/"
 Entering Link 1 = /apps/gaussian/g09/amd-sse4a/l1.exe PID=     83969.
  
 Copyright (c) 1988,1990,1992,1993,1995,1998,2003,2009,2013,
            Gaussian, Inc.  All Rights Reserved.
  
 This is part of the Gaussian(R) 09 program.  It is based on
 the Gaussian(R) 03 system (copyright 2003, Gaussian, Inc.),
 the Gaussian(R) 98 system (copyright 1998, Gaussian, Inc.),
 the Gaussian(R) 94 system (copyright 1995, Gaussian, Inc.),
 the Gaussian 92(TM) system (copyright 1992, Gaussian, Inc.),
 the Gaussian 90(TM) system (copyright 1990, Gaussian, Inc.),
 the Gaussian 88(TM) system (copyright 1988, Gaussian, Inc.),
 the Gaussian 86(TM) system (copyright 1986, Carnegie Mellon
 University), and the Gaussian 82(TM) system (copyright 1983,
 Carnegie Mellon University). Gaussian is a federally registered
 trademark of Gaussian, Inc.
  
 This software contains proprietary and confidential information,
 including trade secrets, belonging to Gaussian, Inc.
  
 This software is provided under written license and may be
 used, copied, transmitted, or stored only in accord with that
 written license.
  
 The following legend is applicable only to US Government
 contracts under FAR:
  
                    RESTRICTED RIGHTS LEGEND
  
 Use, reproduction and disclosure by the US Government is
 subject to restrictions as set forth in subparagraphs (a)
 and (c) of the Commercial Computer Software - Restricted
 Rights clause in FAR 52.227-19.
  
 Gaussian, Inc.
 340 Quinnipiac St., Bldg. 40, Wallingford CT 06492
  
  
 ---------------------------------------------------------------
 Warning -- This program may not be used in any manner that
 competes with the business of Gaussian, Inc. or will provide
 assistance to any competitor of Gaussian, Inc.  The licensee
 of this program is prohibited from giving any competitor of
 Gaussian, Inc. access to this program.  By using this program,
 the user acknowledges that Gaussian, Inc. is engaged in the
 business of creating and licensing software in the field of
 computational chemistry and represents and warrants to the
 licensee that it is not a competitor of Gaussian, Inc. and that
 it will not use this program in any manner prohibited above.
 ---------------------------------------------------------------
  

 Cite this work as:
 Gaussian 09, Revision D.01,
 M. J. Frisch, G. W. Trucks, H. B. Schlegel, G. E. Scuseria, 
 M. A. Robb, J. R. Cheeseman, G. Scalmani, V. Barone, B. Mennucci, 
 G. A. Petersson, H. Nakatsuji, M. Caricato, X. Li, H. P. Hratchian, 
 A. F. Izmaylov, J. Bloino, G. Zheng, J. L. Sonnenberg, M. Hada, 
 M. Ehara, K. Toyota, R. Fukuda, J. Hasegawa, M. Ishida, T. Nakajima, 
 Y. Honda, O. Kitao, H. Nakai, T. Vreven, J. A. Montgomery, Jr., 
 J. E. Peralta, F. Ogliaro, M. Bearpark, J. J. Heyd, E. Brothers, 
 K. N. Kudin, V. N. Staroverov, T. Keith, R. Kobayashi, J. Normand, 
 K. Raghavachari, A. Rendell, J. C. Burant, S. S. Iyengar, J. Tomasi, 
 M. Cossi, N. Rega, J. M. Millam, M. Klene, J. E. Knox, J. B. Cross, 
 V. Bakken, C. Adamo, J. Jaramillo, R. Gomperts, R. E. Stratmann, 
 O. Yazyev, A. J. Austin, R. Cammi, C. Pomelli, J. W. Ochterski, 
 R. L. Martin, K. Morokuma, V. G. Zakrzewski, G. A. Voth, 
 P. Salvador, J. J. Dannenberg, S. Dapprich, A. D. Daniels, 
 O. Farkas, J. B. Foresman, J. V. Ortiz, J. Cioslowski, 
 and D. J. Fox, Gaussian, Inc., Wallingford CT, 2013.
 
 ******************************************
 Gaussian 09:  AS64L-G09RevD.01 24-Apr-2013
                19-Sep-2021 
 ******************************************
 ------------------------------
 #n HF/cc-pvdz Opt=(MaxCyc=500)
 ------------------------------
 1/6=500,18=20,19=15,38=1/1,3;
 2/9=110,12=2,17=6,18=5,40=1/2;
 3/5=16,11=9,16=1,25=1,30=1,71=1/1,2,3;
 4//1;
 5/5=2,38=5/2;
 6/7=2,8=2,9=2,10=2,28=1/1;
 7//1,2,3,16;
 1/6=500,18=20,19=15/3(2);
 2/9=110/2;
 99//99;
 2/9=110/2;
 3/5=16,11=9,16=1,25=1,30=1,71=1/1,2,3;
 4/5=5,16=3,69=1/1;
 5/5=2,38=5/2;
 7//1,2,3,16;
 1/6=500,18=20,19=15/3(-5);
 2/9=110/2;
 6/7=2,8=2,9=2,10=2,19=2,28=1/1;
 99/9=1/99;
 -----
 Title
 -----
 Symbolic Z-matrix:
 Charge =  0 Multiplicity = 1
 C
 O                    1    B1
 H                    1    B2       2    A2
 H                    1    B3       2    A3       3    D3       0
       Variables:
  B1                    1.22463                  
  B2                    1.1017                   
  A2                  122.23574                  
  B3                    1.1017                   
  A3                  122.23574                  
  D3                  180.                       
 

 GradGradGradGradGradGradGradGradGradGradGradGradGradGradGradGradGradGrad
 Berny optimization.
 Initialization pass.
                           ----------------------------
                           !    Initial Parameters    !
                           ! (Angstroms and Degrees)  !
 --------------------------                            --------------------------
 ! Name  Definition              Value          Derivative Info.                !
 --------------------------------------------------------------------------------
 ! R1    R(1,2)                  1.2246         estimate D2E/DX2                !
 ! R2    R(1,3)                  1.1017         estimate D2E/DX2                !
 ! R3    R(1,4)                  1.1017         estimate D2E/DX2                !
 ! A1    A(2,1,3)              122.2357         estimate D2E/DX2                !
 ! A2    A(2,1,4)              122.2357         estimate D2E/DX2                !
 ! A3    A(3,1,4)              115.5285         estimate D2E/DX2                !
 ! D1    D(2,1,4,3)            180.0            estimate D2E/DX2                !
 --------------------------------------------------------------------------------
 Trust Radius=3.00D-01 FncErr=1.00D-07 GrdErr=1.00D-07
 Number of steps in this run=    100 maximum allowed number of steps=    100.
 GradGradGradGradGradGradGradGradGradGradGradGradGradGradGradGradGradGrad

                          Input orientation:                          
 ---------------------------------------------------------------------
 Center     Atomic      Atomic             Coordinates (Angstroms)
 Number     Number       Type             X           Y           Z
 ---------------------------------------------------------------------
      1          6           0        0.000000    0.000000    0.000000
      2          8           0        0.000000    0.000000    1.224630
      3          1           0        0.931885    0.000000   -0.587651
      4          1           0       -0.931885    0.000000   -0.587651
 ---------------------------------------------------------------------
                    Distance matrix (angstroms):
                    1          2          3          4
     1  C    0.000000
     2  O    1.224630   0.000000
     3  H    1.101700   2.037835   0.000000
     4  H    1.101700   2.037835   1.863769   0.000000
 Stoichiometry    CH2O
 Framework group  C2V[C2(CO),SGV(H2)]
 Deg. of freedom     3
 Full point group                 C2V     NOp   4
 Largest Abelian subgroup         C2V     NOp   4
 Largest concise Abelian subgroup C2      NOp   2
                         Standard orientation:                         
 ---------------------------------------------------------------------
 Center     Atomic      Atomic             Coordinates (Angstroms)
 Number     Number       Type             X           Y           Z
 ---------------------------------------------------------------------
      1          6           0        0.000000    0.000000   -0.538859
      2          8           0        0.000000    0.000000    0.685771
      3          1           0        0.000000    0.931885   -1.126510
      4          1           0        0.000000   -0.931885   -1.126510
 ---------------------------------------------------------------------
 Rotational constants (GHZ):    288.7205939     37.7191541     33.3608167
 Standard basis: CC-pVDZ (5D, 7F)
 There are    20 symmetry adapted cartesian basis functions of A1  symmetry.
 There are     3 symmetry adapted cartesian basis functions of A2  symmetry.
 There are     7 symmetry adapted cartesian basis functions of B1  symmetry.
 There are    10 symmetry adapted cartesian basis functions of B2  symmetry.
 There are    18 symmetry adapted basis functions of A1  symmetry.
 There are     3 symmetry adapted basis functions of A2  symmetry.
 There are     7 symmetry adapted basis functions of B1  symmetry.
 There are    10 symmetry adapted basis functions of B2  symmetry.
    38 basis functions,    80 primitive gaussians,    40 cartesian basis functions
     8 alpha electrons        8 beta electrons
       nuclear repulsion energy        30.9440531410 Hartrees.
 NAtoms=    4 NActive=    4 NUniq=    3 SFac= 1.78D+00 NAtFMM=   60 NAOKFM=F Big=F
 Integral buffers will be    131072 words long.
 Raffenetti 1 integral format.
 Two-electron integral symmetry is turned on.
 One-electron integrals computed using PRISM.
 NBasis=    38 RedAO= T EigKep=  3.61D-02  NBF=    18     3     7    10
 NBsUse=    38 1.00D-06 EigRej= -1.00D+00 NBFU=    18     3     7    10
 ExpMin= 1.22D-01 ExpMax= 1.17D+04 ExpMxC= 4.01D+02 IAcc=1 IRadAn=         1 AccDes= 0.00D+00
 Harris functional with IExCor=  205 and IRadAn=       1 diagonalized for initial guess.
 HarFok:  IExCor=  205 AccDes= 0.00D+00 IRadAn=         1 IDoV= 1 UseB2=F ITyADJ=14
 ICtDFT=  3500011 ScaDFX=  1.000000  1.000000  1.000000  1.000000
 FoFCou: FMM=F IPFlag=           0 FMFlag=      100000 FMFlg1=           0
         NFxFlg=           0 DoJE=T BraDBF=F KetDBF=T FulRan=T
         wScrn=  0.000000 ICntrl=     500 IOpCl=  0 I1Cent=   200000004 NGrid=           0
         NMat0=    1 NMatS0=      1 NMatT0=    0 NMatD0=    1 NMtDS0=    0 NMtDT0=    0
 Petite list used in FoFCou.
 Initial guess orbital symmetries:
       Occupied  (A1) (A1) (A1) (A1) (B2) (A1) (B1) (B2)
       Virtual   (B1) (A1) (B2) (A1) (B1) (A1) (B2) (A1) (B2) (A1)
                 (A1) (A2) (B1) (B2) (B1) (A1) (B2) (A1) (B2) (A1)
                 (B1) (A2) (A1) (B2) (A1) (A2) (A1) (B1) (B2) (A1)
 The electronic state of the initial guess is 1-A1.
 Keep R1 ints in memory in symmetry-blocked form, NReq=1144265.
 Requested convergence on RMS density matrix=1.00D-08 within 128 cycles.
 Requested convergence on MAX density matrix=1.00D-06.
 Requested convergence on             energy=1.00D-06.
 No special actions if energy rises.
 SCF Done:  E(RHF) =  -113.874018720     A.U. after   11 cycles
            NFock= 11  Conv=0.38D-08     -V/T= 2.0020

 **********************************************************************

            Population analysis using the SCF density.

 **********************************************************************

 Orbital symmetries:
       Occupied  (A1) (A1) (A1) (A1) (B2) (A1) (B1) (B2)
       Virtual   (B1) (A1) (B2) (A1) (A1) (B1) (B2) (B2) (A1) (A1)
                 (A1) (A2) (B1) (B2) (B1) (A1) (B2) (A1) (B1) (B2)
                 (A1) (A2) (A1) (B2) (A1) (A2) (A1) (B1) (B2) (A1)
 The electronic state is 1-A1.
 Alpha  occ. eigenvalues --  -20.57731 -11.34841  -1.39128  -0.87006  -0.68410
 Alpha  occ. eigenvalues --   -0.64162  -0.52121  -0.43837
 Alpha virt. eigenvalues --    0.12973   0.18825   0.25596   0.35839   0.66947
 Alpha virt. eigenvalues --    0.67001   0.73178   0.81751   0.87838   0.96764
 Alpha virt. eigenvalues --    1.11541   1.15625   1.29371   1.32806   1.40415
 Alpha virt. eigenvalues --    1.67761   1.69418   1.82527   1.94567   1.94706
 Alpha virt. eigenvalues --    1.97866   2.00463   2.57404   2.67158   2.73727
 Alpha virt. eigenvalues --    3.03985   3.15777   3.40755   3.70087   3.80841
          Condensed to atoms (all electrons):
               1          2          3          4
     1  C    4.312485   0.641545   0.400883   0.400883
     2  O    0.641545   7.753670  -0.040265  -0.040265
     3  H    0.400883  -0.040265   0.674076  -0.069934
     4  H    0.400883  -0.040265  -0.069934   0.674076
 Mulliken charges:
               1
     1  C    0.244204
     2  O   -0.314684
     3  H    0.035240
     4  H    0.035240
 Sum of Mulliken charges =   0.00000
 Mulliken charges with hydrogens summed into heavy atoms:
               1
     1  C    0.314684
     2  O   -0.314684
 Electronic spatial extent (au):  <R**2>=             60.7320
 Charge=              0.0000 electrons
 Dipole moment (field-independent basis, Debye):
    X=              0.0000    Y=              0.0000    Z=             -2.7920  Tot=              2.7920
 Quadrupole moment (field-independent basis, Debye-Ang):
   XX=            -11.5564   YY=            -11.3839   ZZ=            -11.7742
   XY=              0.0000   XZ=              0.0000   YZ=              0.0000
 Traceless Quadrupole moment (field-independent basis, Debye-Ang):
   XX=              0.0151   YY=              0.1876   ZZ=             -0.2027
   XY=              0.0000   XZ=              0.0000   YZ=              0.0000
 Octapole moment (field-independent basis, Debye-Ang**2):
  XXX=              0.0000  YYY=              0.0000  ZZZ=              0.1083  XYY=              0.0000
  XXY=              0.0000  XXZ=              0.6457  XZZ=              0.0000  YZZ=              0.0000
  YYZ=             -0.4674  XYZ=              0.0000
 Hexadecapole moment (field-independent basis, Debye-Ang**3):
 XXXX=             -9.6310 YYYY=            -17.0442 ZZZZ=            -43.9866 XXXY=              0.0000
 XXXZ=              0.0000 YYYX=              0.0000 YYYZ=              0.0000 ZZZX=              0.0000
 ZZZY=              0.0000 XXYY=             -4.7558 XXZZ=             -8.9647 YYZZ=             -9.5329
 XXYZ=              0.0000 YYXZ=              0.0000 ZZXY=              0.0000
 N-N= 3.094405314097D+01 E-N=-3.303332454391D+02  KE= 1.136418276388D+02
 Symmetry A1   KE= 1.035008602754D+02
 Symmetry A2   KE= 2.432304040800D-35
 Symmetry B1   KE= 3.449258618342D+00
 Symmetry B2   KE= 6.691708745067D+00
 Calling FoFJK, ICntrl=      2127 FMM=F ISym2X=1 I1Cent= 0 IOpClX= 0 NMat=1 NMatS=1 NMatT=0.
 ***** Axes restored to original set *****
 -------------------------------------------------------------------
 Center     Atomic                   Forces (Hartrees/Bohr)
 Number     Number              X              Y              Z
 -------------------------------------------------------------------
      1        6           0.000000000    0.000000000    0.069030723
      2        8           0.000000000    0.000000000   -0.076105586
      3        1          -0.001000155    0.000000000    0.003537432
      4        1           0.001000155    0.000000000    0.003537432
 -------------------------------------------------------------------
 Cartesian Forces:  Max     0.076105586 RMS     0.029698946

 GradGradGradGradGradGradGradGradGradGradGradGradGradGradGradGradGradGrad
 Berny optimization.
 FormGI is forming the generalized inverse of G from B-inverse, IUseBI=4.
 Internal  Forces:  Max     0.076105586 RMS     0.028845562
 Search for a local minimum.
 Step number   1 out of a maximum of  100
 All quantities printed in internal units (Hartrees-Bohrs-Radians)
 Mixed Optimization -- RFO/linear search
 Second derivative matrix not updated -- first step.
 The second derivative matrix:
                          R1        R2        R3        A1        A2
           R1           0.93361
           R2           0.00000   0.33495
           R3           0.00000   0.00000   0.33495
           A1           0.00000   0.00000   0.00000   0.16000
           A2           0.00000   0.00000   0.00000   0.00000   0.16000
           A3           0.00000   0.00000   0.00000   0.00000   0.00000
           D1           0.00000   0.00000   0.00000   0.00000   0.00000
                          A3        D1
           A3           0.16000
           D1           0.00000   0.00230
 ITU=  0
     Eigenvalues ---    0.00230   0.16000   0.16000   0.33495   0.33495
     Eigenvalues ---    0.93361
 RFO step:  Lambda=-6.31109211D-03 EMin= 2.30000000D-03
 Linear search not attempted -- first point.
 Iteration  1 RMS(Cart)=  0.03221847 RMS(Int)=  0.00006904
 Iteration  2 RMS(Cart)=  0.00007271 RMS(Int)=  0.00000000
 Iteration  3 RMS(Cart)=  0.00000000 RMS(Int)=  0.00000000
 ClnCor:  largest displacement from symmetrization is 1.83D-11 for atom     1.
 Variable       Old X    -DE/DX   Delta X   Delta X   Delta X     New X
                                 (Linear)    (Quad)   (Total)
    R1        2.31422  -0.07611   0.00000  -0.08097  -0.08097   2.23325
    R2        2.08191  -0.00273   0.00000  -0.00801  -0.00801   2.07390
    R3        2.08191  -0.00273   0.00000  -0.00801  -0.00801   2.07390
    A1        2.13342  -0.00171   0.00000  -0.01026  -0.01026   2.12316
    A2        2.13342  -0.00171   0.00000  -0.01026  -0.01026   2.12316
    A3        2.01635   0.00341   0.00000   0.02052   0.02052   2.03687
    D1        3.14159   0.00000   0.00000   0.00000   0.00000   3.14159
         Item               Value     Threshold  Converged?
 Maximum Force            0.076106     0.000450     NO 
 RMS     Force            0.028846     0.000300     NO 
 Maximum Displacement     0.071891     0.001800     NO 
 RMS     Displacement     0.032213     0.001200     NO 
 Predicted change in Energy=-3.178631D-03
 GradGradGradGradGradGradGradGradGradGradGradGradGradGradGradGradGradGrad

                          Input orientation:                          
 ---------------------------------------------------------------------
 Center     Atomic      Atomic             Coordinates (Angstroms)
 Number     Number       Type             X           Y           Z
 ---------------------------------------------------------------------
      1          6           0        0.000000    0.000000    0.004804
      2          8           0        0.000000    0.000000    1.186587
      3          1           0        0.934257    0.000000   -0.571032
      4          1           0       -0.934257    0.000000   -0.571032
 ---------------------------------------------------------------------
                    Distance matrix (angstroms):
                    1          2          3          4
     1  C    0.000000
     2  O    1.181782   0.000000
     3  H    1.097462   1.990492   0.000000
     4  H    1.097462   1.990492   1.868514   0.000000
 Stoichiometry    CH2O
 Framework group  C2V[C2(CO),SGV(H2)]
 Deg. of freedom     3
 Full point group                 C2V     NOp   4
 Largest Abelian subgroup         C2V     NOp   4
 Largest concise Abelian subgroup C2      NOp   2
                         Standard orientation:                         
 ---------------------------------------------------------------------
 Center     Atomic      Atomic             Coordinates (Angstroms)
 Number     Number       Type             X           Y           Z
 ---------------------------------------------------------------------
      1          6           0        0.000000    0.000000   -0.518912
      2          8           0        0.000000    0.000000    0.662871
      3          1           0        0.000000    0.934257   -1.094748
      4          1           0        0.000000   -0.934257   -1.094748
 ---------------------------------------------------------------------
 Rotational constants (GHZ):    287.2562179     40.3712201     35.3965592
 Standard basis: CC-pVDZ (5D, 7F)
 There are    20 symmetry adapted cartesian basis functions of A1  symmetry.
 There are     3 symmetry adapted cartesian basis functions of A2  symmetry.
 There are     7 symmetry adapted cartesian basis functions of B1  symmetry.
 There are    10 symmetry adapted cartesian basis functions of B2  symmetry.
 There are    18 symmetry adapted basis functions of A1  symmetry.
 There are     3 symmetry adapted basis functions of A2  symmetry.
 There are     7 symmetry adapted basis functions of B1  symmetry.
 There are    10 symmetry adapted basis functions of B2  symmetry.
    38 basis functions,    80 primitive gaussians,    40 cartesian basis functions
     8 alpha electrons        8 beta electrons
       nuclear repulsion energy        31.8164245087 Hartrees.
 NAtoms=    4 NActive=    4 NUniq=    3 SFac= 1.78D+00 NAtFMM=   60 NAOKFM=F Big=F
 Integral buffers will be    131072 words long.
 Raffenetti 1 integral format.
 Two-electron integral symmetry is turned on.
 One-electron integrals computed using PRISM.
 NBasis=    38 RedAO= T EigKep=  3.43D-02  NBF=    18     3     7    10
 NBsUse=    38 1.00D-06 EigRej= -1.00D+00 NBFU=    18     3     7    10
 Initial guess from the checkpoint file:  "/blue/chm6586/le.chen/classwork/water_avogadro/pvdz/Gau-83969.chk"
 B after Tr=     0.000000    0.000000    0.000000
         Rot=    1.000000    0.000000    0.000000    0.000000 Ang=   0.00 deg.
 Initial guess orbital symmetries:
       Occupied  (A1) (A1) (A1) (A1) (B2) (A1) (B1) (B2)
       Virtual   (A1) (A1) (A1) (A1) (A1) (A1) (A1) (A1) (A1) (A1)
                 (A1) (A1) (A1) (A2) (A2) (A2) (B1) (B1) (B1) (B1)
                 (B1) (B1) (B2) (B2) (B2) (B2) (B2) (B2) (B2) (B2)
 ExpMin= 1.22D-01 ExpMax= 1.17D+04 ExpMxC= 4.01D+02 IAcc=1 IRadAn=         1 AccDes= 0.00D+00
 Harris functional with IExCor=  205 and IRadAn=       1 diagonalized for initial guess.
 HarFok:  IExCor=  205 AccDes= 0.00D+00 IRadAn=         1 IDoV= 1 UseB2=F ITyADJ=14
 ICtDFT=  3500011 ScaDFX=  1.000000  1.000000  1.000000  1.000000
 FoFCou: FMM=F IPFlag=           0 FMFlag=      100000 FMFlg1=           0
         NFxFlg=           0 DoJE=T BraDBF=F KetDBF=T FulRan=T
         wScrn=  0.000000 ICntrl=     500 IOpCl=  0 I1Cent=   200000004 NGrid=           0
         NMat0=    1 NMatS0=      1 NMatT0=    0 NMatD0=    1 NMtDS0=    0 NMtDT0=    0
 Petite list used in FoFCou.
 Keep R1 ints in memory in symmetry-blocked form, NReq=1144349.
 Requested convergence on RMS density matrix=1.00D-08 within 128 cycles.
 Requested convergence on MAX density matrix=1.00D-06.
 Requested convergence on             energy=1.00D-06.
 No special actions if energy rises.
 SCF Done:  E(RHF) =  -113.877164348     A.U. after   10 cycles
            NFock= 10  Conv=0.37D-08     -V/T= 2.0003
 Calling FoFJK, ICntrl=      2127 FMM=F ISym2X=1 I1Cent= 0 IOpClX= 0 NMat=1 NMatS=1 NMatT=0.
 ***** Axes restored to original set *****
 -------------------------------------------------------------------
 Center     Atomic                   Forces (Hartrees/Bohr)
 Number     Number              X              Y              Z
 -------------------------------------------------------------------
      1        6           0.000000000    0.000000000    0.003579881
      2        8           0.000000000    0.000000000    0.002394884
      3        1           0.001339392    0.000000000   -0.002987382
      4        1          -0.001339392    0.000000000   -0.002987382
 -------------------------------------------------------------------
 Cartesian Forces:  Max     0.003579881 RMS     0.001825465

 GradGradGradGradGradGradGradGradGradGradGradGradGradGradGradGradGradGrad
 Berny optimization.
 Using GEDIIS/GDIIS optimizer.
 FormGI is forming the generalized inverse of G from B-inverse, IUseBI=4.
 Internal  Forces:  Max     0.002707683 RMS     0.002073990
 Search for a local minimum.
 Step number   2 out of a maximum of  100
 All quantities printed in internal units (Hartrees-Bohrs-Radians)
 Mixed Optimization -- RFO/linear search
 Update second derivatives using D2CorX and points    1    2
 DE= -3.15D-03 DEPred=-3.18D-03 R= 9.90D-01
 TightC=F SS=  1.41D+00  RLast= 8.55D-02 DXNew= 5.0454D-01 2.5660D-01
 Trust test= 9.90D-01 RLast= 8.55D-02 DXMaxT set to 3.00D-01
 The second derivative matrix:
                          R1        R2        R3        A1        A2
           R1           0.95139
           R2           0.03208   0.33827
           R3           0.03208   0.00332   0.33827
           A1           0.01548   0.00174   0.00174   0.16091
           A2           0.01548   0.00174   0.00174   0.00091   0.16091
           A3          -0.03095  -0.00349  -0.00349  -0.00182  -0.00182
           D1           0.00000   0.00000   0.00000   0.00000   0.00000
                          A3        D1
           A3           0.16363
           D1           0.00000   0.00230
 ITU=  1  0
 Use linear search instead of GDIIS.
     Eigenvalues ---    0.00230   0.16000   0.16354   0.33495   0.33829
     Eigenvalues ---    0.95659
 RFO step:  Lambda=-8.23408694D-05 EMin= 2.30000000D-03
 Quartic linear search produced a step of -0.04211.
 Iteration  1 RMS(Cart)=  0.00646430 RMS(Int)=  0.00003692
 Iteration  2 RMS(Cart)=  0.00003966 RMS(Int)=  0.00000000
 Iteration  3 RMS(Cart)=  0.00000000 RMS(Int)=  0.00000000
 ClnCor:  largest displacement from symmetrization is 6.70D-11 for atom     1.
 Variable       Old X    -DE/DX   Delta X   Delta X   Delta X     New X
                                 (Linear)    (Quad)   (Total)
    R1        2.23325   0.00239   0.00341  -0.00252   0.00089   2.23413
    R2        2.07390   0.00271   0.00034   0.00717   0.00751   2.08141
    R3        2.07390   0.00271   0.00034   0.00717   0.00751   2.08141
    A1        2.12316   0.00127   0.00043   0.00670   0.00714   2.13029
    A2        2.12316   0.00127   0.00043   0.00670   0.00714   2.13029
    A3        2.03687  -0.00254  -0.00086  -0.01341  -0.01427   2.02260
    D1        3.14159   0.00000   0.00000   0.00000   0.00000   3.14159
         Item               Value     Threshold  Converged?
 Maximum Force            0.002708     0.000450     NO 
 RMS     Force            0.002074     0.000300     NO 
 Maximum Displacement     0.008944     0.001800     NO 
 RMS     Displacement     0.006475     0.001200     NO 
 Predicted change in Energy=-5.021507D-05
 GradGradGradGradGradGradGradGradGradGradGradGradGradGradGradGradGradGrad

                          Input orientation:                          
 ---------------------------------------------------------------------
 Center     Atomic      Atomic             Coordinates (Angstroms)
 Number     Number       Type             X           Y           Z
 ---------------------------------------------------------------------
      1          6           0        0.000000    0.000000    0.009067
      2          8           0        0.000000    0.000000    1.191320
      3          1           0        0.933491    0.000000   -0.575529
      4          1           0       -0.933491    0.000000   -0.575529
 ---------------------------------------------------------------------
                    Distance matrix (angstroms):
                    1          2          3          4
     1  C    0.000000
     2  O    1.182253   0.000000
     3  H    1.101434   1.998290   0.000000
     4  H    1.101434   1.998290   1.866982   0.000000
 Stoichiometry    CH2O
 Framework group  C2V[C2(CO),SGV(H2)]
 Deg. of freedom     3
 Full point group                 C2V     NOp   4
 Largest Abelian subgroup         C2V     NOp   4
 Largest concise Abelian subgroup C2      NOp   2
                         Standard orientation:                         
 ---------------------------------------------------------------------
 Center     Atomic      Atomic             Coordinates (Angstroms)
 Number     Number       Type             X           Y           Z
 ---------------------------------------------------------------------
      1          6           0        0.000000    0.000000   -0.518052
      2          8           0        0.000000    0.000000    0.664201
      3          1           0        0.000000    0.933491   -1.102648
      4          1           0        0.000000   -0.933491   -1.102648
 ---------------------------------------------------------------------
 Rotational constants (GHZ):    287.7278723     40.2097739     35.2794894
 Standard basis: CC-pVDZ (5D, 7F)
 There are    20 symmetry adapted cartesian basis functions of A1  symmetry.
 There are     3 symmetry adapted cartesian basis functions of A2  symmetry.
 There are     7 symmetry adapted cartesian basis functions of B1  symmetry.
 There are    10 symmetry adapted cartesian basis functions of B2  symmetry.
 There are    18 symmetry adapted basis functions of A1  symmetry.
 There are     3 symmetry adapted basis functions of A2  symmetry.
 There are     7 symmetry adapted basis functions of B1  symmetry.
 There are    10 symmetry adapted basis functions of B2  symmetry.
    38 basis functions,    80 primitive gaussians,    40 cartesian basis functions
     8 alpha electrons        8 beta electrons
       nuclear repulsion energy        31.7706316722 Hartrees.
 NAtoms=    4 NActive=    4 NUniq=    3 SFac= 1.78D+00 NAtFMM=   60 NAOKFM=F Big=F
 Integral buffers will be    131072 words long.
 Raffenetti 1 integral format.
 Two-electron integral symmetry is turned on.
 One-electron integrals computed using PRISM.
 NBasis=    38 RedAO= T EigKep=  3.45D-02  NBF=    18     3     7    10
 NBsUse=    38 1.00D-06 EigRej= -1.00D+00 NBFU=    18     3     7    10
 Initial guess from the checkpoint file:  "/blue/chm6586/le.chen/classwork/water_avogadro/pvdz/Gau-83969.chk"
 B after Tr=     0.000000    0.000000    0.000000
         Rot=    1.000000    0.000000    0.000000    0.000000 Ang=   0.00 deg.
 Initial guess orbital symmetries:
       Occupied  (A1) (A1) (A1) (A1) (B2) (A1) (B1) (B2)
       Virtual   (A1) (A1) (A1) (A1) (A1) (A1) (A1) (A1) (A1) (A1)
                 (A1) (A1) (A1) (A2) (A2) (A2) (B1) (B1) (B1) (B1)
                 (B1) (B1) (B2) (B2) (B2) (B2) (B2) (B2) (B2) (B2)
 Keep R1 ints in memory in symmetry-blocked form, NReq=1144321.
 Requested convergence on RMS density matrix=1.00D-08 within 128 cycles.
 Requested convergence on MAX density matrix=1.00D-06.
 Requested convergence on             energy=1.00D-06.
 No special actions if energy rises.
 SCF Done:  E(RHF) =  -113.877220595     A.U. after    9 cycles
            NFock=  9  Conv=0.25D-08     -V/T= 2.0005
 Calling FoFJK, ICntrl=      2127 FMM=F ISym2X=1 I1Cent= 0 IOpClX= 0 NMat=1 NMatS=1 NMatT=0.
 ***** Axes restored to original set *****
 -------------------------------------------------------------------
 Center     Atomic                   Forces (Hartrees/Bohr)
 Number     Number              X              Y              Z
 -------------------------------------------------------------------
      1        6           0.000000000    0.000000000    0.000961399
      2        8           0.000000000    0.000000000   -0.000046665
      3        1          -0.000091604    0.000000000   -0.000457367
      4        1           0.000091604    0.000000000   -0.000457367
 -------------------------------------------------------------------
 Cartesian Forces:  Max     0.000961399 RMS     0.000336850

 GradGradGradGradGradGradGradGradGradGradGradGradGradGradGradGradGradGrad
 Berny optimization.
 Using GEDIIS/GDIIS optimizer.
 FormGI is forming the generalized inverse of G from B-inverse, IUseBI=4.
 Internal  Forces:  Max     0.000605342 RMS     0.000294318
 Search for a local minimum.
 Step number   3 out of a maximum of  100
 All quantities printed in internal units (Hartrees-Bohrs-Radians)
 Mixed Optimization -- En-DIIS/RFO-DIIS
 Update second derivatives using D2CorX and points    1    2    3
 DE= -5.62D-05 DEPred=-5.02D-05 R= 1.12D+00
 TightC=F SS=  1.41D+00  RLast= 2.05D-02 DXNew= 5.0454D-01 6.1404D-02
 Trust test= 1.12D+00 RLast= 2.05D-02 DXMaxT set to 3.00D-01
 The second derivative matrix:
                          R1        R2        R3        A1        A2
           R1           0.96954
           R2           0.04903   0.34181
           R3           0.04903   0.00686   0.34181
           A1           0.01968  -0.00276  -0.00276   0.15654
           A2           0.01968  -0.00276  -0.00276  -0.00346   0.15654
           A3          -0.03937   0.00552   0.00552   0.00692   0.00692
           D1           0.00000   0.00000   0.00000   0.00000   0.00000
                          A3        D1
           A3           0.14616
           D1           0.00000   0.00230
 ITU=  1  1  0
 Use linear search instead of GDIIS.
     Eigenvalues ---    0.00230   0.13556   0.16000   0.33495   0.34209
     Eigenvalues ---    0.97981
 RFO step:  Lambda=-1.43762373D-06 EMin= 2.30000000D-03
 Quartic linear search produced a step of  0.18930.
 Iteration  1 RMS(Cart)=  0.00188723 RMS(Int)=  0.00000293
 Iteration  2 RMS(Cart)=  0.00000290 RMS(Int)=  0.00000000
 Iteration  3 RMS(Cart)=  0.00000000 RMS(Int)=  0.00000000
 ClnCor:  largest displacement from symmetrization is 5.97D-11 for atom     1.
 Variable       Old X    -DE/DX   Delta X   Delta X   Delta X     New X
                                 (Linear)    (Quad)   (Total)
    R1        2.23413  -0.00005   0.00017  -0.00056  -0.00039   2.23375
    R2        2.08141   0.00017   0.00142  -0.00078   0.00064   2.08205
    R3        2.08141   0.00017   0.00142  -0.00078   0.00064   2.08205
    A1        2.13029   0.00030   0.00135   0.00092   0.00227   2.13256
    A2        2.13029   0.00030   0.00135   0.00092   0.00227   2.13256
    A3        2.02260  -0.00061  -0.00270  -0.00183  -0.00453   2.01807
    D1        3.14159   0.00000   0.00000   0.00000   0.00000   3.14159
         Item               Value     Threshold  Converged?
 Maximum Force            0.000605     0.000450     NO 
 RMS     Force            0.000294     0.000300     YES
 Maximum Displacement     0.002265     0.001800     NO 
 RMS     Displacement     0.001888     0.001200     NO 
 Predicted change in Energy=-2.160115D-06
 GradGradGradGradGradGradGradGradGradGradGradGradGradGradGradGradGradGrad

                          Input orientation:                          
 ---------------------------------------------------------------------
 Center     Atomic      Atomic             Coordinates (Angstroms)
 Number     Number       Type             X           Y           Z
 ---------------------------------------------------------------------
      1          6           0        0.000000    0.000000    0.010265
      2          8           0        0.000000    0.000000    1.192313
      3          1           0        0.932451    0.000000   -0.576625
      4          1           0       -0.932451    0.000000   -0.576625
 ---------------------------------------------------------------------
                    Distance matrix (angstroms):
                    1          2          3          4
     1  C    0.000000
     2  O    1.182048   0.000000
     3  H    1.101774   1.999652   0.000000
     4  H    1.101774   1.999652   1.864901   0.000000
 Stoichiometry    CH2O
 Framework group  C2V[C2(CO),SGV(H2)]
 Deg. of freedom     3
 Full point group                 C2V     NOp   4
 Largest Abelian subgroup         C2V     NOp   4
 Largest concise Abelian subgroup C2      NOp   2
                         Standard orientation:                         
 ---------------------------------------------------------------------
 Center     Atomic      Atomic             Coordinates (Angstroms)
 Number     Number       Type             X           Y           Z
 ---------------------------------------------------------------------
      1          6           0        0.000000    0.000000   -0.517662
      2          8           0        0.000000    0.000000    0.664385
      3          1           0        0.000000    0.932451   -1.104553
      4          1           0        0.000000   -0.932451   -1.104553
 ---------------------------------------------------------------------
 Rotational constants (GHZ):    288.3701600     40.1874222     35.2719097
 Standard basis: CC-pVDZ (5D, 7F)
 There are    20 symmetry adapted cartesian basis functions of A1  symmetry.
 There are     3 symmetry adapted cartesian basis functions of A2  symmetry.
 There are     7 symmetry adapted cartesian basis functions of B1  symmetry.
 There are    10 symmetry adapted cartesian basis functions of B2  symmetry.
 There are    18 symmetry adapted basis functions of A1  symmetry.
 There are     3 symmetry adapted basis functions of A2  symmetry.
 There are     7 symmetry adapted basis functions of B1  symmetry.
 There are    10 symmetry adapted basis functions of B2  symmetry.
    38 basis functions,    80 primitive gaussians,    40 cartesian basis functions
     8 alpha electrons        8 beta electrons
       nuclear repulsion energy        31.7700264289 Hartrees.
 NAtoms=    4 NActive=    4 NUniq=    3 SFac= 1.78D+00 NAtFMM=   60 NAOKFM=F Big=F
 Integral buffers will be    131072 words long.
 Raffenetti 1 integral format.
 Two-electron integral symmetry is turned on.
 One-electron integrals computed using PRISM.
 NBasis=    38 RedAO= T EigKep=  3.46D-02  NBF=    18     3     7    10
 NBsUse=    38 1.00D-06 EigRej= -1.00D+00 NBFU=    18     3     7    10
 Initial guess from the checkpoint file:  "/blue/chm6586/le.chen/classwork/water_avogadro/pvdz/Gau-83969.chk"
 B after Tr=     0.000000    0.000000    0.000000
         Rot=    1.000000    0.000000    0.000000    0.000000 Ang=   0.00 deg.
 Initial guess orbital symmetries:
       Occupied  (A1) (A1) (A1) (A1) (B2) (A1) (B1) (B2)
       Virtual   (A1) (A1) (A1) (A1) (A1) (A1) (A1) (A1) (A1) (A1)
                 (A1) (A1) (A1) (A2) (A2) (A2) (B1) (B1) (B1) (B1)
                 (B1) (B1) (B2) (B2) (B2) (B2) (B2) (B2) (B2) (B2)
 Keep R1 ints in memory in symmetry-blocked form, NReq=1144321.
 Requested convergence on RMS density matrix=1.00D-08 within 128 cycles.
 Requested convergence on MAX density matrix=1.00D-06.
 Requested convergence on             energy=1.00D-06.
 No special actions if energy rises.
 SCF Done:  E(RHF) =  -113.877222713     A.U. after    8 cycles
            NFock=  8  Conv=0.22D-08     -V/T= 2.0005
 Calling FoFJK, ICntrl=      2127 FMM=F ISym2X=1 I1Cent= 0 IOpClX= 0 NMat=1 NMatS=1 NMatT=0.
 ***** Axes restored to original set *****
 -------------------------------------------------------------------
 Center     Atomic                   Forces (Hartrees/Bohr)
 Number     Number              X              Y              Z
 -------------------------------------------------------------------
      1        6           0.000000000    0.000000000   -0.000045014
      2        8           0.000000000    0.000000000    0.000041391
      3        1           0.000019608    0.000000000    0.000001812
      4        1          -0.000019608    0.000000000    0.000001812
 -------------------------------------------------------------------
 Cartesian Forces:  Max     0.000045014 RMS     0.000019397

 GradGradGradGradGradGradGradGradGradGradGradGradGradGradGradGradGradGrad
 Berny optimization.
 Using GEDIIS/GDIIS optimizer.
 FormGI is forming the generalized inverse of G from B-inverse, IUseBI=4.
 Internal  Forces:  Max     0.000041391 RMS     0.000019333
 Search for a local minimum.
 Step number   4 out of a maximum of  100
 All quantities printed in internal units (Hartrees-Bohrs-Radians)
 Mixed Optimization -- En-DIIS/RFO-DIIS
 Swapping is turned off.
 Update second derivatives using D2CorX and points    1    2    3    4
 DE= -2.12D-06 DEPred=-2.16D-06 R= 9.81D-01
 TightC=F SS=  1.41D+00  RLast= 5.64D-03 DXNew= 5.0454D-01 1.6915D-02
 Trust test= 9.81D-01 RLast= 5.64D-03 DXMaxT set to 3.00D-01
 The second derivative matrix:
                          R1        R2        R3        A1        A2
           R1           0.95424
           R2           0.03756   0.33968
           R3           0.03756   0.00473   0.33968
           A1           0.01727  -0.00417  -0.00417   0.15709
           A2           0.01727  -0.00417  -0.00417  -0.00291   0.15709
           A3          -0.03454   0.00834   0.00834   0.00582   0.00582
           D1           0.00000   0.00000   0.00000   0.00000   0.00000
                          A3        D1
           A3           0.14836
           D1           0.00000   0.00230
 ITU=  1  1  1  0
     Eigenvalues ---    0.00230   0.13888   0.16000   0.33495   0.34143
     Eigenvalues ---    0.96088
 En-DIIS/RFO-DIIS IScMMF=        0 using points:     4    3
 RFO step:  Lambda=-3.66165348D-09.
 DidBck=F Rises=F RFO-DIIS coefs:    0.97551    0.02449
 Iteration  1 RMS(Cart)=  0.00005991 RMS(Int)=  0.00000000
 Iteration  2 RMS(Cart)=  0.00000000 RMS(Int)=  0.00000000
 ClnCor:  largest displacement from symmetrization is 2.01D-13 for atom     1.
 Variable       Old X    -DE/DX   Delta X   Delta X   Delta X     New X
                                 (Linear)    (Quad)   (Total)
    R1        2.23375   0.00004   0.00001   0.00004   0.00005   2.23379
    R2        2.08205   0.00002  -0.00002   0.00005   0.00004   2.08209
    R3        2.08205   0.00002  -0.00002   0.00005   0.00004   2.08209
    A1        2.13256  -0.00001  -0.00006  -0.00001  -0.00006   2.13250
    A2        2.13256  -0.00001  -0.00006  -0.00001  -0.00006   2.13250
    A3        2.01807   0.00002   0.00011   0.00001   0.00012   2.01819
    D1        3.14159   0.00000   0.00000   0.00000   0.00000   3.14159
         Item               Value     Threshold  Converged?
 Maximum Force            0.000041     0.000450     YES
 RMS     Force            0.000019     0.000300     YES
 Maximum Displacement     0.000099     0.001800     YES
 RMS     Displacement     0.000060     0.001200     YES
 Predicted change in Energy=-3.082121D-09
 Optimization completed.
    -- Stationary point found.
                           ----------------------------
                           !   Optimized Parameters   !
                           ! (Angstroms and Degrees)  !
 --------------------------                            --------------------------
 ! Name  Definition              Value          Derivative Info.                !
 --------------------------------------------------------------------------------
 ! R1    R(1,2)                  1.182          -DE/DX =    0.0                 !
 ! R2    R(1,3)                  1.1018         -DE/DX =    0.0                 !
 ! R3    R(1,4)                  1.1018         -DE/DX =    0.0                 !
 ! A1    A(2,1,3)              122.1866         -DE/DX =    0.0                 !
 ! A2    A(2,1,4)              122.1866         -DE/DX =    0.0                 !
 ! A3    A(3,1,4)              115.6268         -DE/DX =    0.0                 !
 ! D1    D(2,1,4,3)            180.0            -DE/DX =    0.0                 !
 --------------------------------------------------------------------------------
 GradGradGradGradGradGradGradGradGradGradGradGradGradGradGradGradGradGrad

                          Input orientation:                          
 ---------------------------------------------------------------------
 Center     Atomic      Atomic             Coordinates (Angstroms)
 Number     Number       Type             X           Y           Z
 ---------------------------------------------------------------------
      1          6           0        0.000000    0.000000    0.010265
      2          8           0        0.000000    0.000000    1.192313
      3          1           0        0.932451    0.000000   -0.576625
      4          1           0       -0.932451    0.000000   -0.576625
 ---------------------------------------------------------------------
                    Distance matrix (angstroms):
                    1          2          3          4
     1  C    0.000000
     2  O    1.182048   0.000000
     3  H    1.101774   1.999652   0.000000
     4  H    1.101774   1.999652   1.864901   0.000000
 Stoichiometry    CH2O
 Framework group  C2V[C2(CO),SGV(H2)]
 Deg. of freedom     3
 Full point group                 C2V     NOp   4
 Largest Abelian subgroup         C2V     NOp   4
 Largest concise Abelian subgroup C2      NOp   2
                         Standard orientation:                         
 ---------------------------------------------------------------------
 Center     Atomic      Atomic             Coordinates (Angstroms)
 Number     Number       Type             X           Y           Z
 ---------------------------------------------------------------------
      1          6           0        0.000000    0.000000   -0.517662
      2          8           0        0.000000    0.000000    0.664385
      3          1           0        0.000000    0.932451   -1.104553
      4          1           0        0.000000   -0.932451   -1.104553
 ---------------------------------------------------------------------
 Rotational constants (GHZ):    288.3701600     40.1874222     35.2719097

 **********************************************************************

            Population analysis using the SCF density.

 **********************************************************************

 Orbital symmetries:
       Occupied  (A1) (A1) (A1) (A1) (B2) (A1) (B1) (B2)
       Virtual   (B1) (A1) (B2) (A1) (B1) (A1) (B2) (B2) (A1) (A1)
                 (A1) (A2) (B1) (B2) (B1) (A1) (B2) (A1) (B1) (B2)
                 (A1) (A2) (A1) (B2) (A1) (A2) (A1) (B1) (B2) (A1)
 The electronic state is 1-A1.
 Alpha  occ. eigenvalues --  -20.57452 -11.34120  -1.41926  -0.86256  -0.69328
 Alpha  occ. eigenvalues --   -0.65290  -0.53938  -0.43222
 Alpha virt. eigenvalues --    0.14309   0.19097   0.26052   0.36228   0.66781
 Alpha virt. eigenvalues --    0.67287   0.74013   0.81915   0.91755   0.98246
 Alpha virt. eigenvalues --    1.10286   1.15790   1.28995   1.32359   1.42190
 Alpha virt. eigenvalues --    1.67637   1.69692   1.86328   1.95664   1.97274
 Alpha virt. eigenvalues --    1.98236   2.00139   2.58734   2.68895   2.75841
 Alpha virt. eigenvalues --    3.05164   3.19101   3.44637   3.75083   3.86927
          Condensed to atoms (all electrons):
               1          2          3          4
     1  C    4.286208   0.672204   0.401959   0.401959
     2  O    0.672204   7.697374  -0.044331  -0.044331
     3  H    0.401959  -0.044331   0.697248  -0.076501
     4  H    0.401959  -0.044331  -0.076501   0.697248
 Mulliken charges:
               1
     1  C    0.237668
     2  O   -0.280917
     3  H    0.021624
     4  H    0.021624
 Sum of Mulliken charges =   0.00000
 Mulliken charges with hydrogens summed into heavy atoms:
               1
     1  C    0.280917
     2  O   -0.280917
 Electronic spatial extent (au):  <R**2>=             59.0962
 Charge=              0.0000 electrons
 Dipole moment (field-independent basis, Debye):
    X=              0.0000    Y=              0.0000    Z=             -2.5683  Tot=              2.5683
 Quadrupole moment (field-independent basis, Debye-Ang):
   XX=            -11.4401   YY=            -11.4152   ZZ=            -11.8743
   XY=              0.0000   XZ=              0.0000   YZ=              0.0000
 Traceless Quadrupole moment (field-independent basis, Debye-Ang):
   XX=              0.1364   YY=              0.1613   ZZ=             -0.2978
   XY=              0.0000   XZ=              0.0000   YZ=              0.0000
 Octapole moment (field-independent basis, Debye-Ang**2):
  XXX=              0.0000  YYY=              0.0000  ZZZ=              0.4996  XYY=              0.0000
  XXY=              0.0000  XXZ=              0.6820  XZZ=              0.0000  YZZ=              0.0000
  YYZ=             -0.2277  XYZ=              0.0000
 Hexadecapole moment (field-independent basis, Debye-Ang**3):
 XXXX=             -9.4210 YYYY=            -17.3732 ZZZZ=            -42.4110 XXXY=              0.0000
 XXXZ=              0.0000 YYYX=              0.0000 YYYZ=              0.0000 ZZZX=              0.0000
 ZZZY=              0.0000 XXYY=             -4.7537 XXZZ=             -8.6160 YYZZ=             -9.4723
 XXYZ=              0.0000 YYXZ=              0.0000 ZZXY=              0.0000
 N-N= 3.177002642894D+01 E-N=-3.320884815751D+02  KE= 1.138246414466D+02
 Symmetry A1   KE= 1.036499504354D+02
 Symmetry A2   KE= 2.448522393334D-35
 Symmetry B1   KE= 3.485433700390D+00
 Symmetry B2   KE= 6.689257310781D+00
 B after Tr=     0.000000    0.000000    0.020656
         Rot=    1.000000    0.000000    0.000000    0.000000 Ang=   0.00 deg.
 Final structure in terms of initial Z-matrix:
 C
 O,1,B1
 H,1,B2,2,A2
 H,1,B3,2,A3,3,D3,0
      Variables:
 B1=1.18204755
 B2=1.10177352
 A2=122.18658312
 B3=1.10177352
 A3=122.18658312
 D3=180.
 1\1\GINC-C0700A-S2\FOpt\RHF\CC-pVDZ\C1H2O1\LE.CHEN\19-Sep-2021\0\\#n H
 F/cc-pvdz Opt=(MaxCyc=500)\\Title\\0,1\C,0.,0.,0.0102653297\O,0.,0.,1.
 1923128821\H,0.9324506787,0.,-0.5766253051\H,-0.9324506787,0.,-0.57662
 53051\\Version=AS64L-G09RevD.01\State=1-A1\HF=-113.8772227\RMSD=2.164e
 -09\RMSF=1.940e-05\Dipole=0.,0.,-1.0104362\Quadrupole=0.1199571,0.1014
 304,-0.2213875,0.,0.,0.\PG=C02V [C2(C1O1),SGV(H2)]\\@


 REVOLUTIONS HAVE NEVER LIGHTENED THE BURDEN OF TYRANNY:
 THEY HAVE MERELY SHIFTED IT TO OTHER SHOULDERS.
                                   -- G. B. SHAW (1903)
 Job cpu time:       0 days  0 hours  0 minutes  2.7 seconds.
 File lengths (MBytes):  RWF=      5 Int=      0 D2E=      0 Chk=      1 Scr=      1
 Normal termination of Gaussian 09 at Sun Sep 19 18:38:09 2021.
