 Entering Gaussian System, Link 0=g09
 Initial command:
 /apps/gaussian/g09/amd-sse4a/l1.exe "/blue/chm6586/le.chen/hw2/Gau-112604.inp" -scrdir="/blue/chm6586/le.chen/hw2/"
 Entering Link 1 = /apps/gaussian/g09/amd-sse4a/l1.exe PID=    112605.
  
 Copyright (c) 1988,1990,1992,1993,1995,1998,2003,2009,2013,
            Gaussian, Inc.  All Rights Reserved.
  
 This is part of the Gaussian(R) 09 program.  It is based on
 the Gaussian(R) 03 system (copyright 2003, Gaussian, Inc.),
 the Gaussian(R) 98 system (copyright 1998, Gaussian, Inc.),
 the Gaussian(R) 94 system (copyright 1995, Gaussian, Inc.),
 the Gaussian 92(TM) system (copyright 1992, Gaussian, Inc.),
 the Gaussian 90(TM) system (copyright 1990, Gaussian, Inc.),
 the Gaussian 88(TM) system (copyright 1988, Gaussian, Inc.),
 the Gaussian 86(TM) system (copyright 1986, Carnegie Mellon
 University), and the Gaussian 82(TM) system (copyright 1983,
 Carnegie Mellon University). Gaussian is a federally registered
 trademark of Gaussian, Inc.
  
 This software contains proprietary and confidential information,
 including trade secrets, belonging to Gaussian, Inc.
  
 This software is provided under written license and may be
 used, copied, transmitted, or stored only in accord with that
 written license.
  
 The following legend is applicable only to US Government
 contracts under FAR:
  
                    RESTRICTED RIGHTS LEGEND
  
 Use, reproduction and disclosure by the US Government is
 subject to restrictions as set forth in subparagraphs (a)
 and (c) of the Commercial Computer Software - Restricted
 Rights clause in FAR 52.227-19.
  
 Gaussian, Inc.
 340 Quinnipiac St., Bldg. 40, Wallingford CT 06492
  
  
 ---------------------------------------------------------------
 Warning -- This program may not be used in any manner that
 competes with the business of Gaussian, Inc. or will provide
 assistance to any competitor of Gaussian, Inc.  The licensee
 of this program is prohibited from giving any competitor of
 Gaussian, Inc. access to this program.  By using this program,
 the user acknowledges that Gaussian, Inc. is engaged in the
 business of creating and licensing software in the field of
 computational chemistry and represents and warrants to the
 licensee that it is not a competitor of Gaussian, Inc. and that
 it will not use this program in any manner prohibited above.
 ---------------------------------------------------------------
  

 Cite this work as:
 Gaussian 09, Revision D.01,
 M. J. Frisch, G. W. Trucks, H. B. Schlegel, G. E. Scuseria, 
 M. A. Robb, J. R. Cheeseman, G. Scalmani, V. Barone, B. Mennucci, 
 G. A. Petersson, H. Nakatsuji, M. Caricato, X. Li, H. P. Hratchian, 
 A. F. Izmaylov, J. Bloino, G. Zheng, J. L. Sonnenberg, M. Hada, 
 M. Ehara, K. Toyota, R. Fukuda, J. Hasegawa, M. Ishida, T. Nakajima, 
 Y. Honda, O. Kitao, H. Nakai, T. Vreven, J. A. Montgomery, Jr., 
 J. E. Peralta, F. Ogliaro, M. Bearpark, J. J. Heyd, E. Brothers, 
 K. N. Kudin, V. N. Staroverov, T. Keith, R. Kobayashi, J. Normand, 
 K. Raghavachari, A. Rendell, J. C. Burant, S. S. Iyengar, J. Tomasi, 
 M. Cossi, N. Rega, J. M. Millam, M. Klene, J. E. Knox, J. B. Cross, 
 V. Bakken, C. Adamo, J. Jaramillo, R. Gomperts, R. E. Stratmann, 
 O. Yazyev, A. J. Austin, R. Cammi, C. Pomelli, J. W. Ochterski, 
 R. L. Martin, K. Morokuma, V. G. Zakrzewski, G. A. Voth, 
 P. Salvador, J. J. Dannenberg, S. Dapprich, A. D. Daniels, 
 O. Farkas, J. B. Foresman, J. V. Ortiz, J. Cioslowski, 
 and D. J. Fox, Gaussian, Inc., Wallingford CT, 2013.
 
 ******************************************
 Gaussian 09:  AS64L-G09RevD.01 24-Apr-2013
                19-Sep-2021 
 ******************************************
 ------------------------------
 #n HF/cc-pvqz Opt=(MaxCyc=500)
 ------------------------------
 1/6=500,18=20,19=15,38=1/1,3;
 2/9=110,12=2,17=6,18=5,40=1/2;
 3/5=16,6=2,11=9,16=1,25=1,30=1,71=1/1,2,3;
 4//1;
 5/5=2,38=5/2;
 6/7=2,8=2,9=2,10=2,28=1/1;
 7//1,2,3,16;
 1/6=500,18=20,19=15/3(2);
 2/9=110/2;
 99//99;
 2/9=110/2;
 3/5=16,6=2,11=9,16=1,25=1,30=1,71=1/1,2,3;
 4/5=5,16=3,69=1/1;
 5/5=2,38=5/2;
 7//1,2,3,16;
 1/6=500,18=20,19=15/3(-5);
 2/9=110/2;
 6/7=2,8=2,9=2,10=2,19=2,28=1/1;
 99/9=1/99;
 -----
 Title
 -----
 Symbolic Z-matrix:
 Charge =  0 Multiplicity = 1
 C
 O                    1    B1
 H                    1    B2       2    A2
 H                    1    B3       2    A3       3    D3       0
       Variables:
  B1                    1.22463                  
  B2                    1.1017                   
  A2                  122.23574                  
  B3                    1.1017                   
  A3                  122.23574                  
  D3                  180.                       
 

 GradGradGradGradGradGradGradGradGradGradGradGradGradGradGradGradGradGrad
 Berny optimization.
 Initialization pass.
                           ----------------------------
                           !    Initial Parameters    !
                           ! (Angstroms and Degrees)  !
 --------------------------                            --------------------------
 ! Name  Definition              Value          Derivative Info.                !
 --------------------------------------------------------------------------------
 ! R1    R(1,2)                  1.2246         estimate D2E/DX2                !
 ! R2    R(1,3)                  1.1017         estimate D2E/DX2                !
 ! R3    R(1,4)                  1.1017         estimate D2E/DX2                !
 ! A1    A(2,1,3)              122.2357         estimate D2E/DX2                !
 ! A2    A(2,1,4)              122.2357         estimate D2E/DX2                !
 ! A3    A(3,1,4)              115.5285         estimate D2E/DX2                !
 ! D1    D(2,1,4,3)            180.0            estimate D2E/DX2                !
 --------------------------------------------------------------------------------
 Trust Radius=3.00D-01 FncErr=1.00D-07 GrdErr=1.00D-07
 Number of steps in this run=    100 maximum allowed number of steps=    100.
 GradGradGradGradGradGradGradGradGradGradGradGradGradGradGradGradGradGrad

                          Input orientation:                          
 ---------------------------------------------------------------------
 Center     Atomic      Atomic             Coordinates (Angstroms)
 Number     Number       Type             X           Y           Z
 ---------------------------------------------------------------------
      1          6           0        0.000000    0.000000    0.000000
      2          8           0        0.000000    0.000000    1.224630
      3          1           0        0.931885    0.000000   -0.587651
      4          1           0       -0.931885    0.000000   -0.587651
 ---------------------------------------------------------------------
                    Distance matrix (angstroms):
                    1          2          3          4
     1  C    0.000000
     2  O    1.224630   0.000000
     3  H    1.101700   2.037835   0.000000
     4  H    1.101700   2.037835   1.863769   0.000000
 Stoichiometry    CH2O
 Framework group  C2V[C2(CO),SGV(H2)]
 Deg. of freedom     3
 Full point group                 C2V     NOp   4
 Largest Abelian subgroup         C2V     NOp   4
 Largest concise Abelian subgroup C2      NOp   2
                         Standard orientation:                         
 ---------------------------------------------------------------------
 Center     Atomic      Atomic             Coordinates (Angstroms)
 Number     Number       Type             X           Y           Z
 ---------------------------------------------------------------------
      1          6           0        0.000000    0.000000   -0.538859
      2          8           0        0.000000    0.000000    0.685771
      3          1           0        0.000000    0.931885   -1.126510
      4          1           0        0.000000   -0.931885   -1.126510
 ---------------------------------------------------------------------
 Rotational constants (GHZ):    288.7205939     37.7191541     33.3608167
 Standard basis: CC-pVQZ (5D, 7F)
 There are    84 symmetry adapted cartesian basis functions of A1  symmetry.
 There are    27 symmetry adapted cartesian basis functions of A2  symmetry.
 There are    43 symmetry adapted cartesian basis functions of B1  symmetry.
 There are    56 symmetry adapted cartesian basis functions of B2  symmetry.
 There are    64 symmetry adapted basis functions of A1  symmetry.
 There are    24 symmetry adapted basis functions of A2  symmetry.
 There are    36 symmetry adapted basis functions of B1  symmetry.
 There are    46 symmetry adapted basis functions of B2  symmetry.
   170 basis functions,   252 primitive gaussians,   210 cartesian basis functions
     8 alpha electrons        8 beta electrons
       nuclear repulsion energy        30.9440531410 Hartrees.
 NAtoms=    4 NActive=    4 NUniq=    3 SFac= 1.78D+00 NAtFMM=   60 NAOKFM=F Big=F
 Integral buffers will be    131072 words long.
 Raffenetti 1 integral format.
 Two-electron integral symmetry is turned on.
 One-electron integrals computed using PRISM.
 NBasis=   170 RedAO= T EigKep=  3.66D-04  NBF=    64    24    36    46
 NBsUse=   170 1.00D-06 EigRej= -1.00D+00 NBFU=    64    24    36    46
 ExpMin= 8.99D-02 ExpMax= 6.14D+04 ExpMxC= 5.91D+02 IAcc=2 IRadAn=         4 AccDes= 0.00D+00
 Harris functional with IExCor=  205 and IRadAn=       4 diagonalized for initial guess.
 HarFok:  IExCor=  205 AccDes= 0.00D+00 IRadAn=         4 IDoV= 1 UseB2=F ITyADJ=14
 ICtDFT=  3500011 ScaDFX=  1.000000  1.000000  1.000000  1.000000
 FoFCou: FMM=F IPFlag=           0 FMFlag=      100000 FMFlg1=           0
         NFxFlg=           0 DoJE=T BraDBF=F KetDBF=T FulRan=T
         wScrn=  0.000000 ICntrl=     500 IOpCl=  0 I1Cent=   200000004 NGrid=           0
         NMat0=    1 NMatS0=      1 NMatT0=    0 NMatD0=    1 NMtDS0=    0 NMtDT0=    0
 Petite list used in FoFCou.
 Initial guess orbital symmetries:
       Occupied  (A1) (A1) (A1) (A1) (B2) (A1) (B1) (B2)
       Virtual   (B1) (A1) (B2) (A1) (B1) (A1) (B2) (A1) (B2) (A1)
                 (A2) (A1) (B1) (B2) (B1) (A1) (B2) (A2) (A1) (B1)
                 (A1) (B2) (B2) (A1) (A1) (A1) (B1) (A2) (A1) (B2)
                 (B1) (A1) (B2) (B2) (A2) (A1) (A1) (B1) (B1) (B2)
                 (A1) (A2) (B2) (B1) (A1) (A2) (B2) (A1) (B1) (B2)
                 (A1) (A1) (A2) (B2) (B1) (B1) (A1) (B2) (B1) (A1)
                 (B2) (A1) (A2) (B2) (B1) (B2) (A1) (A1) (A1) (A2)
                 (B2) (B1) (A1) (A2) (B1) (A1) (A1) (B2) (A1) (B2)
                 (B2) (A1) (B1) (A2) (A2) (B1) (A1) (A2) (B1) (B2)
                 (B2) (A1) (B2) (B1) (B2) (B1) (A2) (A1) (A1) (A1)
                 (B1) (B2) (A1) (A2) (B2) (A1) (B1) (B1) (A1) (B2)
                 (A2) (A1) (B1) (A2) (A1) (B2) (A1) (B2) (A1) (B1)
                 (A2) (B2) (A2) (A1) (B2) (B1) (A1) (A2) (B2) (A1)
                 (B1) (B2) (A1) (B1) (A2) (A1) (B2) (B1) (A1) (A2)
                 (B2) (B1) (B2) (B2) (A1) (A1) (B1) (B2) (A1) (A2)
                 (A1) (B1) (B2) (A2) (A1) (B2) (A1) (B1) (B2) (A1)
                 (A1) (A1)
 The electronic state of the initial guess is 1-A1.
 Requested convergence on RMS density matrix=1.00D-08 within 128 cycles.
 Requested convergence on MAX density matrix=1.00D-06.
 Requested convergence on             energy=1.00D-06.
 No special actions if energy rises.
 Integral accuracy reduced to 1.0D-05 until final iterations.
 Initial convergence to 1.0D-05 achieved.  Increase integral accuracy.
 SCF Done:  E(RHF) =  -113.918133067     A.U. after   12 cycles
            NFock= 12  Conv=0.68D-08     -V/T= 2.0021

 **********************************************************************

            Population analysis using the SCF density.

 **********************************************************************

 Orbital symmetries:
       Occupied  (A1) (A1) (A1) (A1) (B2) (A1) (B1) (B2)
       Virtual   (B1) (A1) (B2) (A1) (B1) (A1) (B2) (A1) (A1) (B2)
                 (A2) (A1) (B1) (B2) (B1) (A1) (B2) (A2) (B1) (A1)
                 (B2) (A1) (B2) (A1) (A1) (A1) (A1) (B1) (A2) (B2)
                 (B1) (A1) (B2) (B2) (A2) (A1) (A1) (B1) (B1) (B2)
                 (A2) (A1) (B2) (A1) (B1) (A2) (B2) (B1) (A1) (A1)
                 (B2) (A1) (A2) (B2) (B1) (B1) (A1) (B2) (B1) (A1)
                 (B2) (A2) (A1) (B2) (B2) (A1) (B1) (A1) (A1) (B2)
                 (A2) (B1) (A2) (A1) (B1) (A1) (A1) (B2) (A1) (B2)
                 (A1) (B2) (B1) (A2) (A2) (B1) (A1) (A2) (B1) (B2)
                 (B2) (B2) (A1) (B1) (A2) (B2) (B1) (A1) (A1) (B2)
                 (A1) (B1) (A1) (A2) (B2) (B1) (A1) (B1) (A1) (B2)
                 (A2) (A1) (A2) (B1) (B2) (A1) (B2) (A1) (A1) (B1)
                 (B2) (A2) (A2) (A1) (B1) (B2) (A1) (B2) (A2) (A1)
                 (B1) (B2) (A1) (A2) (B1) (A1) (B2) (A1) (A2) (B1)
                 (B2) (B1) (B2) (B2) (A1) (A1) (B1) (B2) (A1) (A2)
                 (A1) (B1) (B2) (A2) (A1) (B2) (A1) (B1) (B2) (A1)
                 (A1) (A1)
 The electronic state is 1-A1.
 Alpha  occ. eigenvalues --  -20.57654 -11.34452  -1.39315  -0.87460  -0.68993
 Alpha  occ. eigenvalues --   -0.64770  -0.52902  -0.44582
 Alpha virt. eigenvalues --    0.10402   0.11971   0.17330   0.21660   0.33576
 Alpha virt. eigenvalues --    0.34418   0.34622   0.46363   0.48087   0.53069
 Alpha virt. eigenvalues --    0.53847   0.60692   0.65853   0.67804   0.73297
 Alpha virt. eigenvalues --    0.74938   0.81767   0.86795   0.90181   0.94331
 Alpha virt. eigenvalues --    1.01594   1.04584   1.11049   1.13250   1.21511
 Alpha virt. eigenvalues --    1.33768   1.47451   1.48330   1.49303   1.54400
 Alpha virt. eigenvalues --    1.62042   1.62238   1.73988   1.79549   1.87642
 Alpha virt. eigenvalues --    1.92014   2.00971   2.03323   2.04569   2.06798
 Alpha virt. eigenvalues --    2.10594   2.14036   2.26834   2.34671   2.36126
 Alpha virt. eigenvalues --    2.36837   2.46502   2.57717   2.58129   2.65018
 Alpha virt. eigenvalues --    2.65537   2.76332   2.78542   2.85675   2.88455
 Alpha virt. eigenvalues --    3.08263   3.09200   3.19271   3.21114   3.44549
 Alpha virt. eigenvalues --    3.44819   3.55387   3.57402   3.66162   3.67679
 Alpha virt. eigenvalues --    3.70986   3.71533   3.89554   4.03739   4.04652
 Alpha virt. eigenvalues --    4.09195   4.34953   4.36317   4.38557   4.53922
 Alpha virt. eigenvalues --    4.53969   4.70295   4.74003   4.96880   5.03519
 Alpha virt. eigenvalues --    5.37432   5.39839   5.48937   5.53363   5.65902
 Alpha virt. eigenvalues --    5.71567   5.78727   5.98757   6.00996   6.11485
 Alpha virt. eigenvalues --    6.16346   6.23380   6.24337   6.26334   6.30496
 Alpha virt. eigenvalues --    6.34343   6.35200   6.44874   6.57358   6.70343
 Alpha virt. eigenvalues --    6.71785   6.74598   6.86369   6.99205   7.11206
 Alpha virt. eigenvalues --    7.43225   7.51809   7.63338   7.64310   7.68689
 Alpha virt. eigenvalues --    7.78211   7.82999   7.83612   7.88744   8.02259
 Alpha virt. eigenvalues --    8.04672   8.26546   8.32417   8.45742   8.48674
 Alpha virt. eigenvalues --    8.51337   8.53153   8.75103   8.85849   8.86444
 Alpha virt. eigenvalues --    8.91044   9.28727   9.31723   9.35434   9.41137
 Alpha virt. eigenvalues --    9.52774   9.63146   9.78459  10.07756  10.17185
 Alpha virt. eigenvalues --   10.19673  10.29560  10.47565  10.57934  10.59298
 Alpha virt. eigenvalues --   10.65457  10.84304  10.98319  11.23119  11.33302
 Alpha virt. eigenvalues --   11.51348  11.58443  11.60624  11.80271  11.95905
 Alpha virt. eigenvalues --   12.15450  12.34318  12.51494  12.71211  12.81854
 Alpha virt. eigenvalues --   12.83488  13.21148  13.69129  14.22301  14.45141
 Alpha virt. eigenvalues --   25.46869  42.56319
          Condensed to atoms (all electrons):
               1          2          3          4
     1  C    4.220548   0.662656   0.393726   0.393726
     2  O    0.662656   7.878387  -0.071536  -0.071536
     3  H    0.393726  -0.071536   0.776674  -0.133176
     4  H    0.393726  -0.071536  -0.133176   0.776674
 Mulliken charges:
               1
     1  C    0.329345
     2  O   -0.397970
     3  H    0.034313
     4  H    0.034313
 Sum of Mulliken charges =   0.00000
 Mulliken charges with hydrogens summed into heavy atoms:
               1
     1  C    0.397970
     2  O   -0.397970
 Electronic spatial extent (au):  <R**2>=             61.0483
 Charge=              0.0000 electrons
 Dipole moment (field-independent basis, Debye):
    X=              0.0000    Y=              0.0000    Z=             -2.9333  Tot=              2.9333
 Quadrupole moment (field-independent basis, Debye-Ang):
   XX=            -11.7693   YY=            -11.4151   ZZ=            -11.9554
   XY=              0.0000   XZ=              0.0000   YZ=              0.0000
 Traceless Quadrupole moment (field-independent basis, Debye-Ang):
   XX=             -0.0561   YY=              0.2981   ZZ=             -0.2421
   XY=              0.0000   XZ=              0.0000   YZ=              0.0000
 Octapole moment (field-independent basis, Debye-Ang**2):
  XXX=              0.0000  YYY=              0.0000  ZZZ=             -0.1741  XYY=              0.0000
  XXY=              0.0000  XXZ=              0.4106  XZZ=              0.0000  YZZ=              0.0000
  YYZ=             -0.8817  XYZ=              0.0000
 Hexadecapole moment (field-independent basis, Debye-Ang**3):
 XXXX=            -10.4577 YYYY=            -17.2147 ZZZZ=            -45.4375 XXXY=              0.0000
 XXXZ=              0.0000 YYYX=              0.0000 YYYZ=              0.0000 ZZZX=              0.0000
 ZZZY=              0.0000 XXYY=             -4.9914 XXZZ=             -9.3159 YYZZ=             -9.8036
 XXYZ=              0.0000 YYXZ=              0.0000 ZZXY=              0.0000
 N-N= 3.094405314097D+01 E-N=-3.304053830435D+02  KE= 1.136835483488D+02
 Symmetry A1   KE= 1.035029323379D+02
 Symmetry A2   KE= 3.169344225202D-21
 Symmetry B1   KE= 3.475229160919D+00
 Symmetry B2   KE= 6.705386849994D+00
 Calling FoFJK, ICntrl=      2127 FMM=F ISym2X=1 I1Cent= 0 IOpClX= 0 NMat=1 NMatS=1 NMatT=0.
 ***** Axes restored to original set *****
 -------------------------------------------------------------------
 Center     Atomic                   Forces (Hartrees/Bohr)
 Number     Number              X              Y              Z
 -------------------------------------------------------------------
      1        6           0.000000000    0.000000000    0.069491879
      2        8           0.000000000    0.000000000   -0.084737238
      3        1          -0.006005797    0.000000000    0.007622680
      4        1           0.006005797    0.000000000    0.007622680
 -------------------------------------------------------------------
 Cartesian Forces:  Max     0.084737238 RMS     0.031882428

 GradGradGradGradGradGradGradGradGradGradGradGradGradGradGradGradGradGrad
 Berny optimization.
 FormGI is forming the generalized inverse of G from B-inverse, IUseBI=4.
 Internal  Forces:  Max     0.084737238 RMS     0.032465612
 Search for a local minimum.
 Step number   1 out of a maximum of  100
 All quantities printed in internal units (Hartrees-Bohrs-Radians)
 Mixed Optimization -- RFO/linear search
 Second derivative matrix not updated -- first step.
 The second derivative matrix:
                          R1        R2        R3        A1        A2
           R1           0.93361
           R2           0.00000   0.33495
           R3           0.00000   0.00000   0.33495
           A1           0.00000   0.00000   0.00000   0.16000
           A2           0.00000   0.00000   0.00000   0.00000   0.16000
           A3           0.00000   0.00000   0.00000   0.00000   0.00000
           D1           0.00000   0.00000   0.00000   0.00000   0.00000
                          A3        D1
           A3           0.16000
           D1           0.00000   0.00230
 ITU=  0
     Eigenvalues ---    0.00230   0.16000   0.16000   0.33495   0.33495
     Eigenvalues ---    0.93361
 RFO step:  Lambda=-8.29143446D-03 EMin= 2.30000000D-03
 Linear search not attempted -- first point.
 Iteration  1 RMS(Cart)=  0.03964953 RMS(Int)=  0.00018832
 Iteration  2 RMS(Cart)=  0.00019786 RMS(Int)=  0.00000002
 Iteration  3 RMS(Cart)=  0.00000002 RMS(Int)=  0.00000000
 ClnCor:  largest displacement from symmetrization is 1.53D-11 for atom     1.
 Variable       Old X    -DE/DX   Delta X   Delta X   Delta X     New X
                                 (Linear)    (Quad)   (Total)
    R1        2.31422  -0.08474   0.00000  -0.08996  -0.08996   2.22425
    R2        2.08191  -0.00915   0.00000  -0.02665  -0.02665   2.05527
    R3        2.08191  -0.00915   0.00000  -0.02665  -0.02665   2.05527
    A1        2.13342  -0.00225   0.00000  -0.01338  -0.01338   2.12004
    A2        2.13342  -0.00225   0.00000  -0.01338  -0.01338   2.12004
    A3        2.01635   0.00450   0.00000   0.02676   0.02676   2.04311
    D1        3.14159   0.00000   0.00000   0.00000   0.00000   3.14159
         Item               Value     Threshold  Converged?
 Maximum Force            0.084737     0.000450     NO 
 RMS     Force            0.032466     0.000300     NO 
 Maximum Displacement     0.086257     0.001800     NO 
 RMS     Displacement     0.039623     0.001200     NO 
 Predicted change in Energy=-4.189610D-03
 GradGradGradGradGradGradGradGradGradGradGradGradGradGradGradGradGradGrad

                          Input orientation:                          
 ---------------------------------------------------------------------
 Center     Atomic      Atomic             Coordinates (Angstroms)
 Number     Number       Type             X           Y           Z
 ---------------------------------------------------------------------
      1          6           0        0.000000    0.000000    0.001962
      2          8           0        0.000000    0.000000    1.178985
      3          1           0        0.927636    0.000000   -0.565809
      4          1           0       -0.927636    0.000000   -0.565809
 ---------------------------------------------------------------------
                    Distance matrix (angstroms):
                    1          2          3          4
     1  C    0.000000
     2  O    1.177023   0.000000
     3  H    1.087599   1.976061   0.000000
     4  H    1.087599   1.976061   1.855272   0.000000
 Stoichiometry    CH2O
 Framework group  C2V[C2(CO),SGV(H2)]
 Deg. of freedom     3
 Full point group                 C2V     NOp   4
 Largest Abelian subgroup         C2V     NOp   4
 Largest concise Abelian subgroup C2      NOp   2
                         Standard orientation:                         
 ---------------------------------------------------------------------
 Center     Atomic      Atomic             Coordinates (Angstroms)
 Number     Number       Type             X           Y           Z
 ---------------------------------------------------------------------
      1          6           0        0.000000    0.000000   -0.517540
      2          8           0        0.000000    0.000000    0.659483
      3          1           0        0.000000    0.927636   -1.085311
      4          1           0        0.000000   -0.927636   -1.085311
 ---------------------------------------------------------------------
 Rotational constants (GHZ):    291.3714429     40.7865941     35.7782967
 Standard basis: CC-pVQZ (5D, 7F)
 There are    84 symmetry adapted cartesian basis functions of A1  symmetry.
 There are    27 symmetry adapted cartesian basis functions of A2  symmetry.
 There are    43 symmetry adapted cartesian basis functions of B1  symmetry.
 There are    56 symmetry adapted cartesian basis functions of B2  symmetry.
 There are    64 symmetry adapted basis functions of A1  symmetry.
 There are    24 symmetry adapted basis functions of A2  symmetry.
 There are    36 symmetry adapted basis functions of B1  symmetry.
 There are    46 symmetry adapted basis functions of B2  symmetry.
   170 basis functions,   252 primitive gaussians,   210 cartesian basis functions
     8 alpha electrons        8 beta electrons
       nuclear repulsion energy        31.9888921314 Hartrees.
 NAtoms=    4 NActive=    4 NUniq=    3 SFac= 1.78D+00 NAtFMM=   60 NAOKFM=F Big=F
 Integral buffers will be    131072 words long.
 Raffenetti 1 integral format.
 Two-electron integral symmetry is turned on.
 One-electron integrals computed using PRISM.
 NBasis=   170 RedAO= T EigKep=  3.46D-04  NBF=    64    24    36    46
 NBsUse=   170 1.00D-06 EigRej= -1.00D+00 NBFU=    64    24    36    46
 Initial guess from the checkpoint file:  "/blue/chm6586/le.chen/hw2/Gau-112605.chk"
 B after Tr=     0.000000    0.000000    0.000000
         Rot=    1.000000    0.000000    0.000000    0.000000 Ang=   0.00 deg.
 Initial guess orbital symmetries:
       Occupied  (A1) (A1) (A1) (A1) (B2) (A1) (B1) (B2)
       Virtual   (A1) (A1) (A1) (A1) (A1) (A1) (A1) (A1) (A1) (A1)
                 (A1) (A1) (A1) (A1) (A1) (A1) (A1) (A1) (A1) (A1)
                 (A1) (A1) (A1) (A1) (A1) (A1) (A1) (A1) (A1) (A1)
                 (A1) (A1) (A1) (A1) (A1) (A1) (A1) (A1) (A1) (A1)
                 (A1) (A1) (A1) (A1) (A1) (A1) (A1) (A1) (A1) (A1)
                 (A1) (A1) (A1) (A1) (A1) (A1) (A1) (A1) (A1) (A2)
                 (A2) (A2) (A2) (A2) (A2) (A2) (A2) (A2) (A2) (A2)
                 (A2) (A2) (A2) (A2) (A2) (A2) (A2) (A2) (A2) (A2)
                 (A2) (A2) (A2) (B1) (B1) (B1) (B1) (B1) (B1) (B1)
                 (B1) (B1) (B1) (B1) (B1) (B1) (B1) (B1) (B1) (B1)
                 (B1) (B1) (B1) (B1) (B1) (B1) (B1) (B1) (B1) (B1)
                 (B1) (B1) (B1) (B1) (B1) (B1) (B1) (B1) (B2) (B2)
                 (B2) (B2) (B2) (B2) (B2) (B2) (B2) (B2) (B2) (B2)
                 (B2) (B2) (B2) (B2) (B2) (B2) (B2) (B2) (B2) (B2)
                 (B2) (B2) (B2) (B2) (B2) (B2) (B2) (B2) (B2) (B2)
                 (B2) (B2) (B2) (B2) (B2) (B2) (B2) (B2) (B2) (B2)
                 (B2) (B2)
 ExpMin= 8.99D-02 ExpMax= 6.14D+04 ExpMxC= 5.91D+02 IAcc=2 IRadAn=         4 AccDes= 0.00D+00
 Harris functional with IExCor=  205 and IRadAn=       4 diagonalized for initial guess.
 HarFok:  IExCor=  205 AccDes= 0.00D+00 IRadAn=         4 IDoV= 1 UseB2=F ITyADJ=14
 ICtDFT=  3500011 ScaDFX=  1.000000  1.000000  1.000000  1.000000
 FoFCou: FMM=F IPFlag=           0 FMFlag=      100000 FMFlg1=           0
         NFxFlg=           0 DoJE=T BraDBF=F KetDBF=T FulRan=T
         wScrn=  0.000000 ICntrl=     500 IOpCl=  0 I1Cent=   200000004 NGrid=           0
         NMat0=    1 NMatS0=      1 NMatT0=    0 NMatD0=    1 NMtDS0=    0 NMtDT0=    0
 Petite list used in FoFCou.
 Requested convergence on RMS density matrix=1.00D-08 within 128 cycles.
 Requested convergence on MAX density matrix=1.00D-06.
 Requested convergence on             energy=1.00D-06.
 No special actions if energy rises.
 Integral accuracy reduced to 1.0D-05 until final iterations.
 Initial convergence to 1.0D-05 achieved.  Increase integral accuracy.
 SCF Done:  E(RHF) =  -113.922321468     A.U. after   12 cycles
            NFock= 12  Conv=0.23D-08     -V/T= 1.9999
 Calling FoFJK, ICntrl=      2127 FMM=F ISym2X=1 I1Cent= 0 IOpClX= 0 NMat=1 NMatS=1 NMatT=0.
 ***** Axes restored to original set *****
 -------------------------------------------------------------------
 Center     Atomic                   Forces (Hartrees/Bohr)
 Number     Number              X              Y              Z
 -------------------------------------------------------------------
      1        6           0.000000000    0.000000000    0.005387670
      2        8           0.000000000    0.000000000    0.000790412
      3        1           0.001671566    0.000000000   -0.003089041
      4        1          -0.001671566    0.000000000   -0.003089041
 -------------------------------------------------------------------
 Cartesian Forces:  Max     0.005387670 RMS     0.002127682

 GradGradGradGradGradGradGradGradGradGradGradGradGradGradGradGradGradGrad
 Berny optimization.
 Using GEDIIS/GDIIS optimizer.
 FormGI is forming the generalized inverse of G from B-inverse, IUseBI=4.
 Internal  Forces:  Max     0.003038318 RMS     0.001993963
 Search for a local minimum.
 Step number   2 out of a maximum of  100
 All quantities printed in internal units (Hartrees-Bohrs-Radians)
 Mixed Optimization -- RFO/linear search
 Update second derivatives using D2CorX and points    1    2
 DE= -4.19D-03 DEPred=-4.19D-03 R= 1.00D+00
 TightC=F SS=  1.41D+00  RLast= 1.03D-01 DXNew= 5.0454D-01 3.0869D-01
 Trust test= 1.00D+00 RLast= 1.03D-01 DXMaxT set to 3.09D-01
 The second derivative matrix:
                          R1        R2        R3        A1        A2
           R1           0.92215
           R2           0.02950   0.34246
           R3           0.02950   0.00751   0.34246
           A1           0.01240   0.00256   0.00256   0.16083
           A2           0.01240   0.00256   0.00256   0.00083   0.16083
           A3          -0.02479  -0.00512  -0.00512  -0.00166  -0.00166
           D1           0.00000   0.00000   0.00000   0.00000   0.00000
                          A3        D1
           A3           0.16332
           D1           0.00000   0.00230
 ITU=  1  0
 Use linear search instead of GDIIS.
     Eigenvalues ---    0.00230   0.16000   0.16348   0.33495   0.34718
     Eigenvalues ---    0.92644
 RFO step:  Lambda=-8.48816961D-05 EMin= 2.30000000D-03
 Quartic linear search produced a step of -0.03349.
 Iteration  1 RMS(Cart)=  0.00599756 RMS(Int)=  0.00003543
 Iteration  2 RMS(Cart)=  0.00003801 RMS(Int)=  0.00000000
 Iteration  3 RMS(Cart)=  0.00000000 RMS(Int)=  0.00000000
 ClnCor:  largest displacement from symmetrization is 7.39D-11 for atom     1.
 Variable       Old X    -DE/DX   Delta X   Delta X   Delta X     New X
                                 (Linear)    (Quad)   (Total)
    R1        2.22425   0.00079   0.00301  -0.00360  -0.00059   2.22366
    R2        2.05527   0.00304   0.00089   0.00724   0.00814   2.06340
    R3        2.05527   0.00304   0.00089   0.00724   0.00814   2.06340
    A1        2.12004   0.00121   0.00045   0.00634   0.00679   2.12683
    A2        2.12004   0.00121   0.00045   0.00634   0.00679   2.12683
    A3        2.04311  -0.00241  -0.00090  -0.01268  -0.01358   2.02953
    D1        3.14159   0.00000   0.00000   0.00000   0.00000   3.14159
         Item               Value     Threshold  Converged?
 Maximum Force            0.003038     0.000450     NO 
 RMS     Force            0.001994     0.000300     NO 
 Maximum Displacement     0.008234     0.001800     NO 
 RMS     Displacement     0.006007     0.001200     NO 
 Predicted change in Energy=-5.089373D-05
 GradGradGradGradGradGradGradGradGradGradGradGradGradGradGradGradGradGrad

                          Input orientation:                          
 ---------------------------------------------------------------------
 Center     Atomic      Atomic             Coordinates (Angstroms)
 Number     Number       Type             X           Y           Z
 ---------------------------------------------------------------------
      1          6           0        0.000000    0.000000    0.006319
      2          8           0        0.000000    0.000000    1.183029
      3          1           0        0.927416    0.000000   -0.570010
      4          1           0       -0.927416    0.000000   -0.570010
 ---------------------------------------------------------------------
                    Distance matrix (angstroms):
                    1          2          3          4
     1  C    0.000000
     2  O    1.176711   0.000000
     3  H    1.091904   1.983242   0.000000
     4  H    1.091904   1.983242   1.854831   0.000000
 Stoichiometry    CH2O
 Framework group  C2V[C2(CO),SGV(H2)]
 Deg. of freedom     3
 Full point group                 C2V     NOp   4
 Largest Abelian subgroup         C2V     NOp   4
 Largest concise Abelian subgroup C2      NOp   2
                         Standard orientation:                         
 ---------------------------------------------------------------------
 Center     Atomic      Atomic             Coordinates (Angstroms)
 Number     Number       Type             X           Y           Z
 ---------------------------------------------------------------------
      1          6           0        0.000000    0.000000   -0.516314
      2          8           0        0.000000    0.000000    0.660396
      3          1           0        0.000000    0.927416   -1.092643
      4          1           0        0.000000   -0.927416   -1.092643
 ---------------------------------------------------------------------
 Rotational constants (GHZ):    291.5098393     40.6744216     35.6940274
 Standard basis: CC-pVQZ (5D, 7F)
 There are    84 symmetry adapted cartesian basis functions of A1  symmetry.
 There are    27 symmetry adapted cartesian basis functions of A2  symmetry.
 There are    43 symmetry adapted cartesian basis functions of B1  symmetry.
 There are    56 symmetry adapted cartesian basis functions of B2  symmetry.
 There are    64 symmetry adapted basis functions of A1  symmetry.
 There are    24 symmetry adapted basis functions of A2  symmetry.
 There are    36 symmetry adapted basis functions of B1  symmetry.
 There are    46 symmetry adapted basis functions of B2  symmetry.
   170 basis functions,   252 primitive gaussians,   210 cartesian basis functions
     8 alpha electrons        8 beta electrons
       nuclear repulsion energy        31.9561562426 Hartrees.
 NAtoms=    4 NActive=    4 NUniq=    3 SFac= 1.78D+00 NAtFMM=   60 NAOKFM=F Big=F
 Integral buffers will be    131072 words long.
 Raffenetti 1 integral format.
 Two-electron integral symmetry is turned on.
 One-electron integrals computed using PRISM.
 NBasis=   170 RedAO= T EigKep=  3.51D-04  NBF=    64    24    36    46
 NBsUse=   170 1.00D-06 EigRej= -1.00D+00 NBFU=    64    24    36    46
 Initial guess from the checkpoint file:  "/blue/chm6586/le.chen/hw2/Gau-112605.chk"
 B after Tr=     0.000000    0.000000    0.000000
         Rot=    1.000000    0.000000    0.000000    0.000000 Ang=   0.00 deg.
 Initial guess orbital symmetries:
       Occupied  (A1) (A1) (A1) (A1) (B2) (A1) (B1) (B2)
       Virtual   (A1) (A1) (A1) (A1) (A1) (A1) (A1) (A1) (A1) (A1)
                 (A1) (A1) (A1) (A1) (A1) (A1) (A1) (A1) (A1) (A1)
                 (A1) (A1) (A1) (A1) (A1) (A1) (A1) (A1) (A1) (A1)
                 (A1) (A1) (A1) (A1) (A1) (A1) (A1) (A1) (A1) (A1)
                 (A1) (A1) (A1) (A1) (A1) (A1) (A1) (A1) (A1) (A1)
                 (A1) (A1) (A1) (A1) (A1) (A1) (A1) (A1) (A1) (A2)
                 (A2) (A2) (A2) (A2) (A2) (A2) (A2) (A2) (A2) (A2)
                 (A2) (A2) (A2) (A2) (A2) (A2) (A2) (A2) (A2) (A2)
                 (A2) (A2) (A2) (B1) (B1) (B1) (B1) (B1) (B1) (B1)
                 (B1) (B1) (B1) (B1) (B1) (B1) (B1) (B1) (B1) (B1)
                 (B1) (B1) (B1) (B1) (B1) (B1) (B1) (B1) (B1) (B1)
                 (B1) (B1) (B1) (B1) (B1) (B1) (B1) (B1) (B2) (B2)
                 (B2) (B2) (B2) (B2) (B2) (B2) (B2) (B2) (B2) (B2)
                 (B2) (B2) (B2) (B2) (B2) (B2) (B2) (B2) (B2) (B2)
                 (B2) (B2) (B2) (B2) (B2) (B2) (B2) (B2) (B2) (B2)
                 (B2) (B2) (B2) (B2) (B2) (B2) (B2) (B2) (B2) (B2)
                 (B2) (B2)
 Requested convergence on RMS density matrix=1.00D-08 within 128 cycles.
 Requested convergence on MAX density matrix=1.00D-06.
 Requested convergence on             energy=1.00D-06.
 No special actions if energy rises.
 SCF Done:  E(RHF) =  -113.922379766     A.U. after    9 cycles
            NFock=  9  Conv=0.26D-08     -V/T= 2.0000
 Calling FoFJK, ICntrl=      2127 FMM=F ISym2X=1 I1Cent= 0 IOpClX= 0 NMat=1 NMatS=1 NMatT=0.
 ***** Axes restored to original set *****
 -------------------------------------------------------------------
 Center     Atomic                   Forces (Hartrees/Bohr)
 Number     Number              X              Y              Z
 -------------------------------------------------------------------
      1        6           0.000000000    0.000000000    0.001272473
      2        8           0.000000000    0.000000000   -0.000124475
      3        1           0.000044385    0.000000000   -0.000573999
      4        1          -0.000044385    0.000000000   -0.000573999
 -------------------------------------------------------------------
 Cartesian Forces:  Max     0.001272473 RMS     0.000437566

 GradGradGradGradGradGradGradGradGradGradGradGradGradGradGradGradGradGrad
 Berny optimization.
 Using GEDIIS/GDIIS optimizer.
 FormGI is forming the generalized inverse of G from B-inverse, IUseBI=4.
 Internal  Forces:  Max     0.000638418 RMS     0.000350300
 Search for a local minimum.
 Step number   3 out of a maximum of  100
 All quantities printed in internal units (Hartrees-Bohrs-Radians)
 Mixed Optimization -- En-DIIS/RFO-DIIS
 Update second derivatives using D2CorX and points    1    2    3
 DE= -5.83D-05 DEPred=-5.09D-05 R= 1.15D+00
 TightC=F SS=  1.41D+00  RLast= 2.02D-02 DXNew= 5.1914D-01 6.0698D-02
 Trust test= 1.15D+00 RLast= 2.02D-02 DXMaxT set to 3.09D-01
 The second derivative matrix:
                          R1        R2        R3        A1        A2
           R1           0.92168
           R2           0.04438   0.34272
           R3           0.04438   0.00777   0.34272
           A1           0.01809  -0.00313  -0.00313   0.15664
           A2           0.01809  -0.00313  -0.00313  -0.00336   0.15664
           A3          -0.03618   0.00625   0.00625   0.00672   0.00672
           D1           0.00000   0.00000   0.00000   0.00000   0.00000
                          A3        D1
           A3           0.14656
           D1           0.00000   0.00230
 ITU=  1  1  0
 Use linear search instead of GDIIS.
     Eigenvalues ---    0.00230   0.13635   0.16000   0.33495   0.34483
     Eigenvalues ---    0.93083
 RFO step:  Lambda=-1.12120195D-06 EMin= 2.30000000D-03
 Quartic linear search produced a step of  0.23608.
 Iteration  1 RMS(Cart)=  0.00195211 RMS(Int)=  0.00000348
 Iteration  2 RMS(Cart)=  0.00000357 RMS(Int)=  0.00000000
 Iteration  3 RMS(Cart)=  0.00000000 RMS(Int)=  0.00000000
 ClnCor:  largest displacement from symmetrization is 6.39D-11 for atom     1.
 Variable       Old X    -DE/DX   Delta X   Delta X   Delta X     New X
                                 (Linear)    (Quad)   (Total)
    R1        2.22366  -0.00012  -0.00014  -0.00039  -0.00053   2.22313
    R2        2.06340   0.00034   0.00192  -0.00074   0.00118   2.06458
    R3        2.06340   0.00034   0.00192  -0.00074   0.00118   2.06458
    A1        2.12683   0.00032   0.00160   0.00082   0.00242   2.12925
    A2        2.12683   0.00032   0.00160   0.00082   0.00242   2.12925
    A3        2.02953  -0.00064  -0.00321  -0.00164  -0.00485   2.02468
    D1        3.14159   0.00000   0.00000   0.00000   0.00000   3.14159
         Item               Value     Threshold  Converged?
 Maximum Force            0.000638     0.000450     NO 
 RMS     Force            0.000350     0.000300     NO 
 Maximum Displacement     0.002567     0.001800     NO 
 RMS     Displacement     0.001953     0.001200     NO 
 Predicted change in Energy=-2.732459D-06
 GradGradGradGradGradGradGradGradGradGradGradGradGradGradGradGradGradGrad

                          Input orientation:                          
 ---------------------------------------------------------------------
 Center     Atomic      Atomic             Coordinates (Angstroms)
 Number     Number       Type             X           Y           Z
 ---------------------------------------------------------------------
      1          6           0        0.000000    0.000000    0.007677
      2          8           0        0.000000    0.000000    1.184105
      3          1           0        0.926545    0.000000   -0.571227
      4          1           0       -0.926545    0.000000   -0.571227
 ---------------------------------------------------------------------
                    Distance matrix (angstroms):
                    1          2          3          4
     1  C    0.000000
     2  O    1.176428   0.000000
     3  H    1.092528   1.984863   0.000000
     4  H    1.092528   1.984863   1.853091   0.000000
 Stoichiometry    CH2O
 Framework group  C2V[C2(CO),SGV(H2)]
 Deg. of freedom     3
 Full point group                 C2V     NOp   4
 Largest Abelian subgroup         C2V     NOp   4
 Largest concise Abelian subgroup C2      NOp   2
                         Standard orientation:                         
 ---------------------------------------------------------------------
 Center     Atomic      Atomic             Coordinates (Angstroms)
 Number     Number       Type             X           Y           Z
 ---------------------------------------------------------------------
      1          6           0        0.000000    0.000000   -0.515851
      2          8           0        0.000000    0.000000    0.660577
      3          1           0        0.000000    0.926545   -1.094756
      4          1           0        0.000000   -0.926545   -1.094756
 ---------------------------------------------------------------------
 Rotational constants (GHZ):    292.0577333     40.6522176     35.6851200
 Standard basis: CC-pVQZ (5D, 7F)
 There are    84 symmetry adapted cartesian basis functions of A1  symmetry.
 There are    27 symmetry adapted cartesian basis functions of A2  symmetry.
 There are    43 symmetry adapted cartesian basis functions of B1  symmetry.
 There are    56 symmetry adapted cartesian basis functions of B2  symmetry.
 There are    64 symmetry adapted basis functions of A1  symmetry.
 There are    24 symmetry adapted basis functions of A2  symmetry.
 There are    36 symmetry adapted basis functions of B1  symmetry.
 There are    46 symmetry adapted basis functions of B2  symmetry.
   170 basis functions,   252 primitive gaussians,   210 cartesian basis functions
     8 alpha electrons        8 beta electrons
       nuclear repulsion energy        31.9548058618 Hartrees.
 NAtoms=    4 NActive=    4 NUniq=    3 SFac= 1.78D+00 NAtFMM=   60 NAOKFM=F Big=F
 Integral buffers will be    131072 words long.
 Raffenetti 1 integral format.
 Two-electron integral symmetry is turned on.
 One-electron integrals computed using PRISM.
 NBasis=   170 RedAO= T EigKep=  3.52D-04  NBF=    64    24    36    46
 NBsUse=   170 1.00D-06 EigRej= -1.00D+00 NBFU=    64    24    36    46
 Initial guess from the checkpoint file:  "/blue/chm6586/le.chen/hw2/Gau-112605.chk"
 B after Tr=     0.000000    0.000000    0.000000
         Rot=    1.000000    0.000000    0.000000    0.000000 Ang=   0.00 deg.
 Initial guess orbital symmetries:
       Occupied  (A1) (A1) (A1) (A1) (B2) (A1) (B1) (B2)
       Virtual   (A1) (A1) (A1) (A1) (A1) (A1) (A1) (A1) (A1) (A1)
                 (A1) (A1) (A1) (A1) (A1) (A1) (A1) (A1) (A1) (A1)
                 (A1) (A1) (A1) (A1) (A1) (A1) (A1) (A1) (A1) (A1)
                 (A1) (A1) (A1) (A1) (A1) (A1) (A1) (A1) (A1) (A1)
                 (A1) (A1) (A1) (A1) (A1) (A1) (A1) (A1) (A1) (A1)
                 (A1) (A1) (A1) (A1) (A1) (A1) (A1) (A1) (A1) (A2)
                 (A2) (A2) (A2) (A2) (A2) (A2) (A2) (A2) (A2) (A2)
                 (A2) (A2) (A2) (A2) (A2) (A2) (A2) (A2) (A2) (A2)
                 (A2) (A2) (A2) (B1) (B1) (B1) (B1) (B1) (B1) (B1)
                 (B1) (B1) (B1) (B1) (B1) (B1) (B1) (B1) (B1) (B1)
                 (B1) (B1) (B1) (B1) (B1) (B1) (B1) (B1) (B1) (B1)
                 (B1) (B1) (B1) (B1) (B1) (B1) (B1) (B1) (B2) (B2)
                 (B2) (B2) (B2) (B2) (B2) (B2) (B2) (B2) (B2) (B2)
                 (B2) (B2) (B2) (B2) (B2) (B2) (B2) (B2) (B2) (B2)
                 (B2) (B2) (B2) (B2) (B2) (B2) (B2) (B2) (B2) (B2)
                 (B2) (B2) (B2) (B2) (B2) (B2) (B2) (B2) (B2) (B2)
                 (B2) (B2)
 Requested convergence on RMS density matrix=1.00D-08 within 128 cycles.
 Requested convergence on MAX density matrix=1.00D-06.
 Requested convergence on             energy=1.00D-06.
 No special actions if energy rises.
 SCF Done:  E(RHF) =  -113.922382478     A.U. after    7 cycles
            NFock=  7  Conv=0.49D-08     -V/T= 2.0000
 Calling FoFJK, ICntrl=      2127 FMM=F ISym2X=1 I1Cent= 0 IOpClX= 0 NMat=1 NMatS=1 NMatT=0.
 ***** Axes restored to original set *****
 -------------------------------------------------------------------
 Center     Atomic                   Forces (Hartrees/Bohr)
 Number     Number              X              Y              Z
 -------------------------------------------------------------------
      1        6           0.000000000    0.000000000   -0.000039058
      2        8           0.000000000    0.000000000    0.000035676
      3        1           0.000015802    0.000000000    0.000001691
      4        1          -0.000015802    0.000000000    0.000001691
 -------------------------------------------------------------------
 Cartesian Forces:  Max     0.000039058 RMS     0.000016592

 GradGradGradGradGradGradGradGradGradGradGradGradGradGradGradGradGradGrad
 Berny optimization.
 Using GEDIIS/GDIIS optimizer.
 FormGI is forming the generalized inverse of G from B-inverse, IUseBI=4.
 Internal  Forces:  Max     0.000035676 RMS     0.000016295
 Search for a local minimum.
 Step number   4 out of a maximum of  100
 All quantities printed in internal units (Hartrees-Bohrs-Radians)
 Mixed Optimization -- En-DIIS/RFO-DIIS
 Swapping is turned off.
 Update second derivatives using D2CorX and points    1    2    3    4
 DE= -2.71D-06 DEPred=-2.73D-06 R= 9.92D-01
 TightC=F SS=  1.41D+00  RLast= 6.19D-03 DXNew= 5.1914D-01 1.8561D-02
 Trust test= 9.92D-01 RLast= 6.19D-03 DXMaxT set to 3.09D-01
 The second derivative matrix:
                          R1        R2        R3        A1        A2
           R1           0.91470
           R2           0.03416   0.33904
           R3           0.03416   0.00409   0.33904
           A1           0.01705  -0.00398  -0.00398   0.15703
           A2           0.01705  -0.00398  -0.00398  -0.00297   0.15703
           A3          -0.03410   0.00795   0.00795   0.00594   0.00594
           D1           0.00000   0.00000   0.00000   0.00000   0.00000
                          A3        D1
           A3           0.14811
           D1           0.00000   0.00230
 ITU=  1  1  1  0
     Eigenvalues ---    0.00230   0.13859   0.16000   0.33495   0.34055
     Eigenvalues ---    0.92086
 En-DIIS/RFO-DIIS IScMMF=        0 using points:     4    3
 RFO step:  Lambda=-2.58613807D-09.
 DidBck=F Rises=F RFO-DIIS coefs:    0.98433    0.01567
 Iteration  1 RMS(Cart)=  0.00004857 RMS(Int)=  0.00000000
 Iteration  2 RMS(Cart)=  0.00000000 RMS(Int)=  0.00000000
 ClnCor:  largest displacement from symmetrization is 2.18D-13 for atom     1.
 Variable       Old X    -DE/DX   Delta X   Delta X   Delta X     New X
                                 (Linear)    (Quad)   (Total)
    R1        2.22313   0.00004   0.00001   0.00003   0.00004   2.22317
    R2        2.06458   0.00001  -0.00002   0.00005   0.00003   2.06461
    R3        2.06458   0.00001  -0.00002   0.00005   0.00003   2.06461
    A1        2.12925  -0.00001  -0.00004  -0.00001  -0.00005   2.12920
    A2        2.12925  -0.00001  -0.00004  -0.00001  -0.00005   2.12920
    A3        2.02468   0.00001   0.00008   0.00003   0.00010   2.02478
    D1        3.14159   0.00000   0.00000   0.00000   0.00000   3.14159
         Item               Value     Threshold  Converged?
 Maximum Force            0.000036     0.000450     YES
 RMS     Force            0.000016     0.000300     YES
 Maximum Displacement     0.000080     0.001800     YES
 RMS     Displacement     0.000049     0.001200     YES
 Predicted change in Energy=-2.149729D-09
 Optimization completed.
    -- Stationary point found.
                           ----------------------------
                           !   Optimized Parameters   !
                           ! (Angstroms and Degrees)  !
 --------------------------                            --------------------------
 ! Name  Definition              Value          Derivative Info.                !
 --------------------------------------------------------------------------------
 ! R1    R(1,2)                  1.1764         -DE/DX =    0.0                 !
 ! R2    R(1,3)                  1.0925         -DE/DX =    0.0                 !
 ! R3    R(1,4)                  1.0925         -DE/DX =    0.0                 !
 ! A1    A(2,1,3)              121.9971         -DE/DX =    0.0                 !
 ! A2    A(2,1,4)              121.9971         -DE/DX =    0.0                 !
 ! A3    A(3,1,4)              116.0058         -DE/DX =    0.0                 !
 ! D1    D(2,1,4,3)            180.0            -DE/DX =    0.0                 !
 --------------------------------------------------------------------------------
 GradGradGradGradGradGradGradGradGradGradGradGradGradGradGradGradGradGrad

                          Input orientation:                          
 ---------------------------------------------------------------------
 Center     Atomic      Atomic             Coordinates (Angstroms)
 Number     Number       Type             X           Y           Z
 ---------------------------------------------------------------------
      1          6           0        0.000000    0.000000    0.007677
      2          8           0        0.000000    0.000000    1.184105
      3          1           0        0.926545    0.000000   -0.571227
      4          1           0       -0.926545    0.000000   -0.571227
 ---------------------------------------------------------------------
                    Distance matrix (angstroms):
                    1          2          3          4
     1  C    0.000000
     2  O    1.176428   0.000000
     3  H    1.092528   1.984863   0.000000
     4  H    1.092528   1.984863   1.853091   0.000000
 Stoichiometry    CH2O
 Framework group  C2V[C2(CO),SGV(H2)]
 Deg. of freedom     3
 Full point group                 C2V     NOp   4
 Largest Abelian subgroup         C2V     NOp   4
 Largest concise Abelian subgroup C2      NOp   2
                         Standard orientation:                         
 ---------------------------------------------------------------------
 Center     Atomic      Atomic             Coordinates (Angstroms)
 Number     Number       Type             X           Y           Z
 ---------------------------------------------------------------------
      1          6           0        0.000000    0.000000   -0.515851
      2          8           0        0.000000    0.000000    0.660577
      3          1           0        0.000000    0.926545   -1.094756
      4          1           0        0.000000   -0.926545   -1.094756
 ---------------------------------------------------------------------
 Rotational constants (GHZ):    292.0577333     40.6522176     35.6851200

 **********************************************************************

            Population analysis using the SCF density.

 **********************************************************************

 Orbital symmetries:
       Occupied  (A1) (A1) (A1) (A1) (B2) (A1) (B1) (B2)
       Virtual   (B1) (A1) (B2) (A1) (B1) (A1) (B2) (A1) (A1) (A2)
                 (B2) (A1) (B1) (B2) (B1) (A1) (B2) (A2) (B1) (A1)
                 (B2) (A1) (B2) (A1) (A1) (A1) (A1) (B1) (A2) (B2)
                 (B1) (A1) (B2) (B2) (A2) (A1) (A1) (B1) (B1) (B2)
                 (A2) (A1) (B2) (A1) (A2) (B1) (B2) (B1) (A1) (A1)
                 (B2) (A1) (A2) (B2) (B1) (B1) (A1) (B2) (B1) (A1)
                 (B2) (A2) (A1) (B2) (B2) (A1) (B1) (A1) (A1) (B2)
                 (A2) (B1) (A2) (A1) (B1) (A1) (A1) (B2) (A1) (B2)
                 (A1) (B2) (B1) (A2) (A2) (B1) (A1) (B1) (A2) (B2)
                 (B2) (A1) (B2) (B1) (A2) (B2) (B1) (A1) (A1) (B2)
                 (A1) (B1) (A1) (A2) (B2) (B1) (A1) (A1) (B1) (B2)
                 (A2) (A2) (A1) (B1) (B2) (A1) (B2) (A1) (A1) (B1)
                 (B2) (A2) (A2) (B1) (A1) (B2) (A1) (A2) (B2) (A1)
                 (B1) (B2) (A1) (A2) (B1) (A1) (B2) (A1) (B1) (B2)
                 (A2) (B1) (B2) (B2) (A1) (B1) (A1) (B2) (A1) (A2)
                 (A1) (B1) (B2) (A2) (A1) (B2) (A1) (B1) (B2) (A1)
                 (A1) (A1)
 The electronic state is 1-A1.
 Alpha  occ. eigenvalues --  -20.57225 -11.33172  -1.42422  -0.86842  -0.70272
 Alpha  occ. eigenvalues --   -0.65997  -0.54897  -0.43962
 Alpha virt. eigenvalues --    0.11676   0.12254   0.17620   0.21810   0.33659
 Alpha virt. eigenvalues --    0.34456   0.34505   0.46805   0.47939   0.54094
 Alpha virt. eigenvalues --    0.54367   0.62955   0.65270   0.67606   0.74497
 Alpha virt. eigenvalues --    0.74995   0.81713   0.87009   0.90429   0.95847
 Alpha virt. eigenvalues --    1.02607   1.07917   1.12122   1.14181   1.21819
 Alpha virt. eigenvalues --    1.33988   1.46422   1.47108   1.50882   1.54553
 Alpha virt. eigenvalues --    1.63119   1.63184   1.73482   1.78685   1.87724
 Alpha virt. eigenvalues --    1.92413   2.02338   2.04143   2.04848   2.07394
 Alpha virt. eigenvalues --    2.10716   2.13875   2.28997   2.36614   2.37908
 Alpha virt. eigenvalues --    2.38024   2.48065   2.58161   2.61864   2.66605
 Alpha virt. eigenvalues --    2.66618   2.78950   2.81345   2.87630   2.90704
 Alpha virt. eigenvalues --    3.09755   3.10075   3.20083   3.22009   3.42789
 Alpha virt. eigenvalues --    3.48831   3.58093   3.62586   3.67688   3.70659
 Alpha virt. eigenvalues --    3.72500   3.75012   3.89490   4.05019   4.05859
 Alpha virt. eigenvalues --    4.13195   4.33363   4.38215   4.39993   4.58162
 Alpha virt. eigenvalues --    4.61766   4.70784   4.73175   5.05657   5.07238
 Alpha virt. eigenvalues --    5.38052   5.42105   5.51062   5.53829   5.67918
 Alpha virt. eigenvalues --    5.72652   5.84257   6.01741   6.03795   6.10892
 Alpha virt. eigenvalues --    6.20319   6.26313   6.26864   6.28024   6.34210
 Alpha virt. eigenvalues --    6.36714   6.41168   6.49742   6.63425   6.74729
 Alpha virt. eigenvalues --    6.76457   6.78621   6.92707   7.01870   7.22505
 Alpha virt. eigenvalues --    7.47491   7.58711   7.71669   7.71725   7.75171
 Alpha virt. eigenvalues --    7.81756   7.85069   7.87322   7.96882   8.04587
 Alpha virt. eigenvalues --    8.06870   8.28152   8.29958   8.46844   8.50222
 Alpha virt. eigenvalues --    8.53864   8.59275   8.77042   8.87574   8.89696
 Alpha virt. eigenvalues --    8.98293   9.29853   9.35281   9.37702   9.45145
 Alpha virt. eigenvalues --    9.59885   9.67147   9.93367  10.16264  10.27415
 Alpha virt. eigenvalues --   10.30007  10.36804  10.57299  10.63448  10.72705
 Alpha virt. eigenvalues --   10.74902  10.95056  11.12220  11.26025  11.42207
 Alpha virt. eigenvalues --   11.59862  11.61561  11.62204  11.84627  11.99980
 Alpha virt. eigenvalues --   12.23605  12.37547  12.59638  12.76619  12.91907
 Alpha virt. eigenvalues --   12.99085  13.37325  13.93099  14.47306  14.68522
 Alpha virt. eigenvalues --   25.94935  42.81389
          Condensed to atoms (all electrons):
               1          2          3          4
     1  C    4.198702   0.684769   0.394110   0.394110
     2  O    0.684769   7.842586  -0.080914  -0.080914
     3  H    0.394110  -0.080914   0.817373  -0.149178
     4  H    0.394110  -0.080914  -0.149178   0.817373
 Mulliken charges:
               1
     1  C    0.328310
     2  O   -0.365528
     3  H    0.018609
     4  H    0.018609
 Sum of Mulliken charges =   0.00000
 Mulliken charges with hydrogens summed into heavy atoms:
               1
     1  C    0.365528
     2  O   -0.365528
 Electronic spatial extent (au):  <R**2>=             58.9468
 Charge=              0.0000 electrons
 Dipole moment (field-independent basis, Debye):
    X=              0.0000    Y=              0.0000    Z=             -2.6820  Tot=              2.6820
 Quadrupole moment (field-independent basis, Debye-Ang):
   XX=            -11.5949   YY=            -11.4105   ZZ=            -12.0835
   XY=              0.0000   XZ=              0.0000   YZ=              0.0000
 Traceless Quadrupole moment (field-independent basis, Debye-Ang):
   XX=              0.1014   YY=              0.2858   ZZ=             -0.3872
   XY=              0.0000   XZ=              0.0000   YZ=              0.0000
 Octapole moment (field-independent basis, Debye-Ang**2):
  XXX=              0.0000  YYY=              0.0000  ZZZ=              0.2370  XYY=              0.0000
  XXY=              0.0000  XXZ=              0.4549  XZZ=              0.0000  YZZ=              0.0000
  YYZ=             -0.5955  XYZ=              0.0000
 Hexadecapole moment (field-independent basis, Debye-Ang**3):
 XXXX=            -10.0953 YYYY=            -17.3095 ZZZZ=            -43.4314 XXXY=              0.0000
 XXXZ=              0.0000 YYYX=              0.0000 YYYZ=              0.0000 ZZZX=              0.0000
 ZZZY=              0.0000 XXYY=             -4.9161 XXZZ=             -8.8512 YYZZ=             -9.6968
 XXYZ=              0.0000 YYXZ=              0.0000 ZZXY=              0.0000
 N-N= 3.195480586176D+01 E-N=-3.325796398577D+02  KE= 1.139210449782D+02
 Symmetry A1   KE= 1.036846263428D+02
 Symmetry A2   KE=-3.295275527981D-22
 Symmetry B1   KE= 3.514094097943D+00
 Symmetry B2   KE= 6.722324537416D+00
 B after Tr=     0.000000    0.000000    0.028970
         Rot=    1.000000    0.000000    0.000000    0.000000 Ang=   0.00 deg.
 Final structure in terms of initial Z-matrix:
 C
 O,1,B1
 H,1,B2,2,A2
 H,1,B3,2,A3,3,D3,0
      Variables:
 B1=1.17642794
 B2=1.09252783
 A2=121.99711118
 B3=1.09252783
 A3=121.99711118
 D3=180.
 1\1\GINC-C0704A-S4\FOpt\RHF\CC-pVQZ\C1H2O1\LE.CHEN\19-Sep-2021\0\\#n H
 F/cc-pvqz Opt=(MaxCyc=500)\\Title\\0,1\C,0.,0.,0.0076773304\O,0.,0.,1.
 1841052662\H,0.9265453343,0.,-0.5712274975\H,-0.9265453343,0.,-0.57122
 74975\\Version=AS64L-G09RevD.01\State=1-A1\HF=-113.9223825\RMSD=4.913e
 -09\RMSF=1.659e-05\Dipole=0.,0.,-1.055183\Quadrupole=0.2124686,0.07540
 63,-0.2878749,0.,0.,0.\PG=C02V [C2(C1O1),SGV(H2)]\\@


 ABALONE: AN EXPRESSION OF DISBELIEF.
 Job cpu time:       0 days  0 hours  3 minutes 52.5 seconds.
 File lengths (MBytes):  RWF=     20 Int=      0 D2E=      0 Chk=      3 Scr=      1
 Normal termination of Gaussian 09 at Sun Sep 19 19:15:46 2021.
