 Entering Gaussian System, Link 0=g09
 Initial command:
 /apps/gaussian/g09/amd-sse4a/l1.exe "/blue/chm6586/le.chen/hw2/Gau-88445.inp" -scrdir="/blue/chm6586/le.chen/hw2/"
 Entering Link 1 = /apps/gaussian/g09/amd-sse4a/l1.exe PID=     88446.
  
 Copyright (c) 1988,1990,1992,1993,1995,1998,2003,2009,2013,
            Gaussian, Inc.  All Rights Reserved.
  
 This is part of the Gaussian(R) 09 program.  It is based on
 the Gaussian(R) 03 system (copyright 2003, Gaussian, Inc.),
 the Gaussian(R) 98 system (copyright 1998, Gaussian, Inc.),
 the Gaussian(R) 94 system (copyright 1995, Gaussian, Inc.),
 the Gaussian 92(TM) system (copyright 1992, Gaussian, Inc.),
 the Gaussian 90(TM) system (copyright 1990, Gaussian, Inc.),
 the Gaussian 88(TM) system (copyright 1988, Gaussian, Inc.),
 the Gaussian 86(TM) system (copyright 1986, Carnegie Mellon
 University), and the Gaussian 82(TM) system (copyright 1983,
 Carnegie Mellon University). Gaussian is a federally registered
 trademark of Gaussian, Inc.
  
 This software contains proprietary and confidential information,
 including trade secrets, belonging to Gaussian, Inc.
  
 This software is provided under written license and may be
 used, copied, transmitted, or stored only in accord with that
 written license.
  
 The following legend is applicable only to US Government
 contracts under FAR:
  
                    RESTRICTED RIGHTS LEGEND
  
 Use, reproduction and disclosure by the US Government is
 subject to restrictions as set forth in subparagraphs (a)
 and (c) of the Commercial Computer Software - Restricted
 Rights clause in FAR 52.227-19.
  
 Gaussian, Inc.
 340 Quinnipiac St., Bldg. 40, Wallingford CT 06492
  
  
 ---------------------------------------------------------------
 Warning -- This program may not be used in any manner that
 competes with the business of Gaussian, Inc. or will provide
 assistance to any competitor of Gaussian, Inc.  The licensee
 of this program is prohibited from giving any competitor of
 Gaussian, Inc. access to this program.  By using this program,
 the user acknowledges that Gaussian, Inc. is engaged in the
 business of creating and licensing software in the field of
 computational chemistry and represents and warrants to the
 licensee that it is not a competitor of Gaussian, Inc. and that
 it will not use this program in any manner prohibited above.
 ---------------------------------------------------------------
  

 Cite this work as:
 Gaussian 09, Revision D.01,
 M. J. Frisch, G. W. Trucks, H. B. Schlegel, G. E. Scuseria, 
 M. A. Robb, J. R. Cheeseman, G. Scalmani, V. Barone, B. Mennucci, 
 G. A. Petersson, H. Nakatsuji, M. Caricato, X. Li, H. P. Hratchian, 
 A. F. Izmaylov, J. Bloino, G. Zheng, J. L. Sonnenberg, M. Hada, 
 M. Ehara, K. Toyota, R. Fukuda, J. Hasegawa, M. Ishida, T. Nakajima, 
 Y. Honda, O. Kitao, H. Nakai, T. Vreven, J. A. Montgomery, Jr., 
 J. E. Peralta, F. Ogliaro, M. Bearpark, J. J. Heyd, E. Brothers, 
 K. N. Kudin, V. N. Staroverov, T. Keith, R. Kobayashi, J. Normand, 
 K. Raghavachari, A. Rendell, J. C. Burant, S. S. Iyengar, J. Tomasi, 
 M. Cossi, N. Rega, J. M. Millam, M. Klene, J. E. Knox, J. B. Cross, 
 V. Bakken, C. Adamo, J. Jaramillo, R. Gomperts, R. E. Stratmann, 
 O. Yazyev, A. J. Austin, R. Cammi, C. Pomelli, J. W. Ochterski, 
 R. L. Martin, K. Morokuma, V. G. Zakrzewski, G. A. Voth, 
 P. Salvador, J. J. Dannenberg, S. Dapprich, A. D. Daniels, 
 O. Farkas, J. B. Foresman, J. V. Ortiz, J. Cioslowski, 
 and D. J. Fox, Gaussian, Inc., Wallingford CT, 2013.
 
 ******************************************
 Gaussian 09:  AS64L-G09RevD.01 24-Apr-2013
                19-Sep-2021 
 ******************************************
 ------------------------------
 #n HF/cc-pvtz Opt=(MaxCyc=500)
 ------------------------------
 1/6=500,18=20,19=15,38=1/1,3;
 2/9=110,12=2,17=6,18=5,40=1/2;
 3/5=16,6=1,11=9,16=1,25=1,30=1,71=1/1,2,3;
 4//1;
 5/5=2,38=5/2;
 6/7=2,8=2,9=2,10=2,28=1/1;
 7//1,2,3,16;
 1/6=500,18=20,19=15/3(2);
 2/9=110/2;
 99//99;
 2/9=110/2;
 3/5=16,6=1,11=9,16=1,25=1,30=1,71=1/1,2,3;
 4/5=5,16=3,69=1/1;
 5/5=2,38=5/2;
 7//1,2,3,16;
 1/6=500,18=20,19=15/3(-5);
 2/9=110/2;
 6/7=2,8=2,9=2,10=2,19=2,28=1/1;
 99/9=1/99;
 -----
 Title
 -----
 Symbolic Z-matrix:
 Charge =  0 Multiplicity = 1
 C
 O                    1    B1
 H                    1    B2       2    A2
 H                    1    B3       2    A3       3    D3       0
       Variables:
  B1                    1.22463                  
  B2                    1.1017                   
  A2                  122.23574                  
  B3                    1.1017                   
  A3                  122.23574                  
  D3                  180.                       
 

 GradGradGradGradGradGradGradGradGradGradGradGradGradGradGradGradGradGrad
 Berny optimization.
 Initialization pass.
                           ----------------------------
                           !    Initial Parameters    !
                           ! (Angstroms and Degrees)  !
 --------------------------                            --------------------------
 ! Name  Definition              Value          Derivative Info.                !
 --------------------------------------------------------------------------------
 ! R1    R(1,2)                  1.2246         estimate D2E/DX2                !
 ! R2    R(1,3)                  1.1017         estimate D2E/DX2                !
 ! R3    R(1,4)                  1.1017         estimate D2E/DX2                !
 ! A1    A(2,1,3)              122.2357         estimate D2E/DX2                !
 ! A2    A(2,1,4)              122.2357         estimate D2E/DX2                !
 ! A3    A(3,1,4)              115.5285         estimate D2E/DX2                !
 ! D1    D(2,1,4,3)            180.0            estimate D2E/DX2                !
 --------------------------------------------------------------------------------
 Trust Radius=3.00D-01 FncErr=1.00D-07 GrdErr=1.00D-07
 Number of steps in this run=    100 maximum allowed number of steps=    100.
 GradGradGradGradGradGradGradGradGradGradGradGradGradGradGradGradGradGrad

                          Input orientation:                          
 ---------------------------------------------------------------------
 Center     Atomic      Atomic             Coordinates (Angstroms)
 Number     Number       Type             X           Y           Z
 ---------------------------------------------------------------------
      1          6           0        0.000000    0.000000    0.000000
      2          8           0        0.000000    0.000000    1.224630
      3          1           0        0.931885    0.000000   -0.587651
      4          1           0       -0.931885    0.000000   -0.587651
 ---------------------------------------------------------------------
                    Distance matrix (angstroms):
                    1          2          3          4
     1  C    0.000000
     2  O    1.224630   0.000000
     3  H    1.101700   2.037835   0.000000
     4  H    1.101700   2.037835   1.863769   0.000000
 Stoichiometry    CH2O
 Framework group  C2V[C2(CO),SGV(H2)]
 Deg. of freedom     3
 Full point group                 C2V     NOp   4
 Largest Abelian subgroup         C2V     NOp   4
 Largest concise Abelian subgroup C2      NOp   2
                         Standard orientation:                         
 ---------------------------------------------------------------------
 Center     Atomic      Atomic             Coordinates (Angstroms)
 Number     Number       Type             X           Y           Z
 ---------------------------------------------------------------------
      1          6           0        0.000000    0.000000   -0.538859
      2          8           0        0.000000    0.000000    0.685771
      3          1           0        0.000000    0.931885   -1.126510
      4          1           0        0.000000   -0.931885   -1.126510
 ---------------------------------------------------------------------
 Rotational constants (GHZ):    288.7205939     37.7191541     33.3608167
 Standard basis: CC-pVTZ (5D, 7F)
 There are    43 symmetry adapted cartesian basis functions of A1  symmetry.
 There are    10 symmetry adapted cartesian basis functions of A2  symmetry.
 There are    20 symmetry adapted cartesian basis functions of B1  symmetry.
 There are    27 symmetry adapted cartesian basis functions of B2  symmetry.
 There are    36 symmetry adapted basis functions of A1  symmetry.
 There are    10 symmetry adapted basis functions of A2  symmetry.
 There are    18 symmetry adapted basis functions of B1  symmetry.
 There are    24 symmetry adapted basis functions of B2  symmetry.
    88 basis functions,   138 primitive gaussians,   100 cartesian basis functions
     8 alpha electrons        8 beta electrons
       nuclear repulsion energy        30.9440531410 Hartrees.
 NAtoms=    4 NActive=    4 NUniq=    3 SFac= 1.78D+00 NAtFMM=   60 NAOKFM=F Big=F
 Integral buffers will be    131072 words long.
 Raffenetti 1 integral format.
 Two-electron integral symmetry is turned on.
 One-electron integrals computed using PRISM.
 NBasis=    88 RedAO= T EigKep=  2.93D-03  NBF=    36    10    18    24
 NBsUse=    88 1.00D-06 EigRej= -1.00D+00 NBFU=    36    10    18    24
 ExpMin= 1.03D-01 ExpMax= 1.53D+04 ExpMxC= 5.22D+02 IAcc=1 IRadAn=         1 AccDes= 0.00D+00
 Harris functional with IExCor=  205 and IRadAn=       1 diagonalized for initial guess.
 HarFok:  IExCor=  205 AccDes= 0.00D+00 IRadAn=         1 IDoV= 1 UseB2=F ITyADJ=14
 ICtDFT=  3500011 ScaDFX=  1.000000  1.000000  1.000000  1.000000
 FoFCou: FMM=F IPFlag=           0 FMFlag=      100000 FMFlg1=           0
         NFxFlg=           0 DoJE=T BraDBF=F KetDBF=T FulRan=T
         wScrn=  0.000000 ICntrl=     500 IOpCl=  0 I1Cent=   200000004 NGrid=           0
         NMat0=    1 NMatS0=      1 NMatT0=    0 NMatD0=    1 NMtDS0=    0 NMtDT0=    0
 Petite list used in FoFCou.
 Initial guess orbital symmetries:
       Occupied  (A1) (A1) (A1) (A1) (B2) (A1) (B1) (B2)
       Virtual   (B1) (A1) (B2) (A1) (B1) (A1) (B2) (A1) (B2) (A1)
                 (A1) (A2) (B1) (B2) (B1) (A1) (B2) (A1) (A2) (B1)
                 (A1) (B2) (B2) (A1) (A1) (A2) (A1) (B1) (B2) (B1)
                 (A1) (A1) (B2) (A1) (B2) (A2) (B1) (B2) (A1) (B1)
                 (A2) (B2) (A1) (B1) (B2) (A1) (A1) (A2) (B2) (B1)
                 (A1) (B2) (A2) (B1) (B1) (A1) (B2) (A1) (B1) (A1)
                 (B2) (A2) (B2) (A1) (A1) (B1) (B2) (A2) (B2) (A1)
                 (A1) (B1) (A2) (A1) (B1) (B2) (A1) (B2) (A1) (A1)
 The electronic state of the initial guess is 1-A1.
 Keep R1 ints in memory in symmetry-blocked form, NReq=9709158.
 Requested convergence on RMS density matrix=1.00D-08 within 128 cycles.
 Requested convergence on MAX density matrix=1.00D-06.
 Requested convergence on             energy=1.00D-06.
 No special actions if energy rises.
 SCF Done:  E(RHF) =  -113.909226057     A.U. after   11 cycles
            NFock= 11  Conv=0.42D-08     -V/T= 2.0023

 **********************************************************************

            Population analysis using the SCF density.

 **********************************************************************

 Orbital symmetries:
       Occupied  (A1) (A1) (A1) (A1) (B2) (A1) (B1) (B2)
       Virtual   (B1) (A1) (B2) (A1) (A1) (B1) (B2) (A1) (B2) (A1)
                 (A2) (A1) (B1) (B2) (B1) (A1) (B2) (A2) (A1) (B1)
                 (B2) (A1) (B2) (A1) (A1) (A2) (A1) (B1) (B2) (A1)
                 (B1) (A1) (B2) (A1) (B2) (A2) (B1) (B2) (A1) (B1)
                 (A2) (B2) (A1) (B1) (B2) (A1) (A2) (A1) (B2) (B1)
                 (A1) (A2) (B2) (B1) (A1) (B1) (B2) (A1) (B1) (B2)
                 (A2) (A1) (A1) (B2) (A1) (B1) (B2) (B2) (A2) (A1)
                 (B1) (A1) (A2) (A1) (B1) (B2) (A1) (B2) (A1) (A1)
 The electronic state is 1-A1.
 Alpha  occ. eigenvalues --  -20.57617 -11.34356  -1.39201  -0.87329  -0.68832
 Alpha  occ. eigenvalues --   -0.64602  -0.52713  -0.44402
 Alpha virt. eigenvalues --    0.11363   0.14624   0.20511   0.26820   0.43915
 Alpha virt. eigenvalues --    0.44413   0.45740   0.58864   0.61923   0.68261
 Alpha virt. eigenvalues --    0.70534   0.72823   0.86778   0.89458   0.93983
 Alpha virt. eigenvalues --    1.02085   1.07087   1.17758   1.19627   1.21664
 Alpha virt. eigenvalues --    1.33009   1.33026   1.47035   1.65175   1.77614
 Alpha virt. eigenvalues --    1.94378   2.00305   2.15796   2.29320   2.32019
 Alpha virt. eigenvalues --    2.35088   2.47755   2.63300   2.82846   2.87169
 Alpha virt. eigenvalues --    2.92800   3.01858   3.12287   3.17248   3.21996
 Alpha virt. eigenvalues --    3.26617   3.41787   3.45247   3.48382   3.60422
 Alpha virt. eigenvalues --    3.61379   3.62633   3.67936   3.90790   4.01768
 Alpha virt. eigenvalues --    4.13216   4.17294   4.20054   4.25320   4.40862
 Alpha virt. eigenvalues --    4.49834   4.74391   4.77373   4.91995   5.04608
 Alpha virt. eigenvalues --    5.06138   5.06229   5.37107   5.39875   5.59669
 Alpha virt. eigenvalues --    5.65812   5.66381   6.05709   6.09300   6.24844
 Alpha virt. eigenvalues --    6.56815   6.58235   6.85351   6.88366   7.28383
 Alpha virt. eigenvalues --    7.36872   7.50566   7.50705  10.96953  13.24753
          Condensed to atoms (all electrons):
               1          2          3          4
     1  C    4.356786   0.663714   0.387172   0.387172
     2  O    0.663714   7.806327  -0.066520  -0.066520
     3  H    0.387172  -0.066520   0.710196  -0.096771
     4  H    0.387172  -0.066520  -0.096771   0.710196
 Mulliken charges:
               1
     1  C    0.205156
     2  O   -0.337001
     3  H    0.065922
     4  H    0.065922
 Sum of Mulliken charges =   0.00000
 Mulliken charges with hydrogens summed into heavy atoms:
               1
     1  C    0.337001
     2  O   -0.337001
 Electronic spatial extent (au):  <R**2>=             60.9405
 Charge=              0.0000 electrons
 Dipole moment (field-independent basis, Debye):
    X=              0.0000    Y=              0.0000    Z=             -2.8924  Tot=              2.8924
 Quadrupole moment (field-independent basis, Debye-Ang):
   XX=            -11.7082   YY=            -11.4050   ZZ=            -11.8816
   XY=              0.0000   XZ=              0.0000   YZ=              0.0000
 Traceless Quadrupole moment (field-independent basis, Debye-Ang):
   XX=             -0.0433   YY=              0.2599   ZZ=             -0.2167
   XY=              0.0000   XZ=              0.0000   YZ=              0.0000
 Octapole moment (field-independent basis, Debye-Ang**2):
  XXX=              0.0000  YYY=              0.0000  ZZZ=             -0.0571  XYY=              0.0000
  XXY=              0.0000  XXZ=              0.4869  XZZ=              0.0000  YZZ=              0.0000
  YYZ=             -0.7684  XYZ=              0.0000
 Hexadecapole moment (field-independent basis, Debye-Ang**3):
 XXXX=            -10.2114 YYYY=            -17.2235 ZZZZ=            -44.9845 XXXY=              0.0000
 XXXZ=              0.0000 YYYX=              0.0000 YYYZ=              0.0000 ZZZX=              0.0000
 ZZZY=              0.0000 XXYY=             -4.9288 XXZZ=             -9.2031 YYZZ=             -9.6882
 XXYZ=              0.0000 YYXZ=              0.0000 ZZXY=              0.0000
 N-N= 3.094405314097D+01 E-N=-3.303773716932D+02  KE= 1.136518239146D+02
 Symmetry A1   KE= 1.034791321571D+02
 Symmetry A2   KE= 1.099567598756D-33
 Symmetry B1   KE= 3.466386589574D+00
 Symmetry B2   KE= 6.706305167933D+00
 Calling FoFJK, ICntrl=      2127 FMM=F ISym2X=1 I1Cent= 0 IOpClX= 0 NMat=1 NMatS=1 NMatT=0.
 ***** Axes restored to original set *****
 -------------------------------------------------------------------
 Center     Atomic                   Forces (Hartrees/Bohr)
 Number     Number              X              Y              Z
 -------------------------------------------------------------------
      1        6           0.000000000    0.000000000    0.068151787
      2        8           0.000000000    0.000000000   -0.082634915
      3        1          -0.005784441    0.000000000    0.007241564
      4        1           0.005784441    0.000000000    0.007241564
 -------------------------------------------------------------------
 Cartesian Forces:  Max     0.082634915 RMS     0.031151505

 GradGradGradGradGradGradGradGradGradGradGradGradGradGradGradGradGradGrad
 Berny optimization.
 FormGI is forming the generalized inverse of G from B-inverse, IUseBI=4.
 Internal  Forces:  Max     0.082634915 RMS     0.031642083
 Search for a local minimum.
 Step number   1 out of a maximum of  100
 All quantities printed in internal units (Hartrees-Bohrs-Radians)
 Mixed Optimization -- RFO/linear search
 Second derivative matrix not updated -- first step.
 The second derivative matrix:
                          R1        R2        R3        A1        A2
           R1           0.93361
           R2           0.00000   0.33495
           R3           0.00000   0.00000   0.33495
           A1           0.00000   0.00000   0.00000   0.16000
           A2           0.00000   0.00000   0.00000   0.00000   0.16000
           A3           0.00000   0.00000   0.00000   0.00000   0.00000
           D1           0.00000   0.00000   0.00000   0.00000   0.00000
                          A3        D1
           A3           0.16000
           D1           0.00000   0.00230
 ITU=  0
     Eigenvalues ---    0.00230   0.16000   0.16000   0.33495   0.33495
     Eigenvalues ---    0.93361
 RFO step:  Lambda=-7.85938706D-03 EMin= 2.30000000D-03
 Linear search not attempted -- first point.
 Iteration  1 RMS(Cart)=  0.03836785 RMS(Int)=  0.00016861
 Iteration  2 RMS(Cart)=  0.00017712 RMS(Int)=  0.00000002
 Iteration  3 RMS(Cart)=  0.00000001 RMS(Int)=  0.00000000
 ClnCor:  largest displacement from symmetrization is 1.63D-11 for atom     1.
 Variable       Old X    -DE/DX   Delta X   Delta X   Delta X     New X
                                 (Linear)    (Quad)   (Total)
    R1        2.31422  -0.08263   0.00000  -0.08777  -0.08777   2.22644
    R2        2.08191  -0.00876   0.00000  -0.02554  -0.02554   2.05637
    R3        2.08191  -0.00876   0.00000  -0.02554  -0.02554   2.05637
    A1        2.13342  -0.00211   0.00000  -0.01257  -0.01257   2.12085
    A2        2.13342  -0.00211   0.00000  -0.01257  -0.01257   2.12085
    A3        2.01635   0.00422   0.00000   0.02514   0.02514   2.04149
    D1        3.14159   0.00000   0.00000   0.00000   0.00000   3.14159
         Item               Value     Threshold  Converged?
 Maximum Force            0.082635     0.000450     NO 
 RMS     Force            0.031642     0.000300     NO 
 Maximum Displacement     0.083614     0.001800     NO 
 RMS     Displacement     0.038344     0.001200     NO 
 Predicted change in Energy=-3.968815D-03
 GradGradGradGradGradGradGradGradGradGradGradGradGradGradGradGradGradGrad

                          Input orientation:                          
 ---------------------------------------------------------------------
 Center     Atomic      Atomic             Coordinates (Angstroms)
 Number     Number       Type             X           Y           Z
 ---------------------------------------------------------------------
      1          6           0        0.000000    0.000000    0.002200
      2          8           0        0.000000    0.000000    1.180383
      3          1           0        0.927674    0.000000   -0.566628
      4          1           0       -0.927674    0.000000   -0.566628
 ---------------------------------------------------------------------
                    Distance matrix (angstroms):
                    1          2          3          4
     1  C    0.000000
     2  O    1.178183   0.000000
     3  H    1.088184   1.978036   0.000000
     4  H    1.088184   1.978036   1.855349   0.000000
 Stoichiometry    CH2O
 Framework group  C2V[C2(CO),SGV(H2)]
 Deg. of freedom     3
 Full point group                 C2V     NOp   4
 Largest Abelian subgroup         C2V     NOp   4
 Largest concise Abelian subgroup C2      NOp   2
                         Standard orientation:                         
 ---------------------------------------------------------------------
 Center     Atomic      Atomic             Coordinates (Angstroms)
 Number     Number       Type             X           Y           Z
 ---------------------------------------------------------------------
      1          6           0        0.000000    0.000000   -0.517988
      2          8           0        0.000000    0.000000    0.660195
      3          1           0        0.000000    0.927674   -1.086816
      4          1           0        0.000000   -0.927674   -1.086816
 ---------------------------------------------------------------------
 Rotational constants (GHZ):    291.3472825     40.6987129     35.7102919
 Standard basis: CC-pVTZ (5D, 7F)
 There are    43 symmetry adapted cartesian basis functions of A1  symmetry.
 There are    10 symmetry adapted cartesian basis functions of A2  symmetry.
 There are    20 symmetry adapted cartesian basis functions of B1  symmetry.
 There are    27 symmetry adapted cartesian basis functions of B2  symmetry.
 There are    36 symmetry adapted basis functions of A1  symmetry.
 There are    10 symmetry adapted basis functions of A2  symmetry.
 There are    18 symmetry adapted basis functions of B1  symmetry.
 There are    24 symmetry adapted basis functions of B2  symmetry.
    88 basis functions,   138 primitive gaussians,   100 cartesian basis functions
     8 alpha electrons        8 beta electrons
       nuclear repulsion energy        31.9602171956 Hartrees.
 NAtoms=    4 NActive=    4 NUniq=    3 SFac= 1.78D+00 NAtFMM=   60 NAOKFM=F Big=F
 Integral buffers will be    131072 words long.
 Raffenetti 1 integral format.
 Two-electron integral symmetry is turned on.
 One-electron integrals computed using PRISM.
 NBasis=    88 RedAO= T EigKep=  2.75D-03  NBF=    36    10    18    24
 NBsUse=    88 1.00D-06 EigRej= -1.00D+00 NBFU=    36    10    18    24
 Initial guess from the checkpoint file:  "/blue/chm6586/le.chen/hw2/Gau-88446.chk"
 B after Tr=     0.000000    0.000000    0.000000
         Rot=    1.000000    0.000000    0.000000    0.000000 Ang=   0.00 deg.
 Initial guess orbital symmetries:
       Occupied  (A1) (A1) (A1) (A1) (B2) (A1) (B1) (B2)
       Virtual   (A1) (A1) (A1) (A1) (A1) (A1) (A1) (A1) (A1) (A1)
                 (A1) (A1) (A1) (A1) (A1) (A1) (A1) (A1) (A1) (A1)
                 (A1) (A1) (A1) (A1) (A1) (A1) (A1) (A1) (A1) (A1)
                 (A1) (A2) (A2) (A2) (A2) (A2) (A2) (A2) (A2) (A2)
                 (A2) (B1) (B1) (B1) (B1) (B1) (B1) (B1) (B1) (B1)
                 (B1) (B1) (B1) (B1) (B1) (B1) (B1) (B1) (B2) (B2)
                 (B2) (B2) (B2) (B2) (B2) (B2) (B2) (B2) (B2) (B2)
                 (B2) (B2) (B2) (B2) (B2) (B2) (B2) (B2) (B2) (B2)
 ExpMin= 1.03D-01 ExpMax= 1.53D+04 ExpMxC= 5.22D+02 IAcc=1 IRadAn=         1 AccDes= 0.00D+00
 Harris functional with IExCor=  205 and IRadAn=       1 diagonalized for initial guess.
 HarFok:  IExCor=  205 AccDes= 0.00D+00 IRadAn=         1 IDoV= 1 UseB2=F ITyADJ=14
 ICtDFT=  3500011 ScaDFX=  1.000000  1.000000  1.000000  1.000000
 FoFCou: FMM=F IPFlag=           0 FMFlag=      100000 FMFlg1=           0
         NFxFlg=           0 DoJE=T BraDBF=F KetDBF=T FulRan=T
         wScrn=  0.000000 ICntrl=     500 IOpCl=  0 I1Cent=   200000004 NGrid=           0
         NMat0=    1 NMatS0=      1 NMatT0=    0 NMatD0=    1 NMtDS0=    0 NMtDT0=    0
 Petite list used in FoFCou.
 Keep R1 ints in memory in symmetry-blocked form, NReq=9709242.
 Requested convergence on RMS density matrix=1.00D-08 within 128 cycles.
 Requested convergence on MAX density matrix=1.00D-06.
 Requested convergence on             energy=1.00D-06.
 No special actions if energy rises.
 SCF Done:  E(RHF) =  -113.913167109     A.U. after   10 cycles
            NFock= 10  Conv=0.42D-08     -V/T= 2.0002
 Calling FoFJK, ICntrl=      2127 FMM=F ISym2X=1 I1Cent= 0 IOpClX= 0 NMat=1 NMatS=1 NMatT=0.
 ***** Axes restored to original set *****
 -------------------------------------------------------------------
 Center     Atomic                   Forces (Hartrees/Bohr)
 Number     Number              X              Y              Z
 -------------------------------------------------------------------
      1        6           0.000000000    0.000000000    0.004638264
      2        8           0.000000000    0.000000000    0.001403701
      3        1           0.001581524    0.000000000   -0.003020982
      4        1          -0.001581524    0.000000000   -0.003020982
 -------------------------------------------------------------------
 Cartesian Forces:  Max     0.004638264 RMS     0.001973554

 GradGradGradGradGradGradGradGradGradGradGradGradGradGradGradGradGradGrad
 Berny optimization.
 Using GEDIIS/GDIIS optimizer.
 FormGI is forming the generalized inverse of G from B-inverse, IUseBI=4.
 Internal  Forces:  Max     0.002927408 RMS     0.001990340
 Search for a local minimum.
 Step number   2 out of a maximum of  100
 All quantities printed in internal units (Hartrees-Bohrs-Radians)
 Mixed Optimization -- RFO/linear search
 Update second derivatives using D2CorX and points    1    2
 DE= -3.94D-03 DEPred=-3.97D-03 R= 9.93D-01
 TightC=F SS=  1.41D+00  RLast= 9.98D-02 DXNew= 5.0454D-01 2.9934D-01
 Trust test= 9.93D-01 RLast= 9.98D-02 DXMaxT set to 3.00D-01
 The second derivative matrix:
                          R1        R2        R3        A1        A2
           R1           0.92955
           R2           0.02931   0.34214
           R3           0.02931   0.00719   0.34214
           A1           0.01264   0.00249   0.00249   0.16081
           A2           0.01264   0.00249   0.00249   0.00081   0.16081
           A3          -0.02527  -0.00498  -0.00498  -0.00162  -0.00162
           D1           0.00000   0.00000   0.00000   0.00000   0.00000
                          A3        D1
           A3           0.16325
           D1           0.00000   0.00230
 ITU=  1  0
 Use linear search instead of GDIIS.
     Eigenvalues ---    0.00230   0.16000   0.16336   0.33495   0.34661
     Eigenvalues ---    0.93378
 RFO step:  Lambda=-7.72638493D-05 EMin= 2.30000000D-03
 Quartic linear search produced a step of -0.03880.
 Iteration  1 RMS(Cart)=  0.00598579 RMS(Int)=  0.00003388
 Iteration  2 RMS(Cart)=  0.00003634 RMS(Int)=  0.00000000
 Iteration  3 RMS(Cart)=  0.00000000 RMS(Int)=  0.00000000
 ClnCor:  largest displacement from symmetrization is 7.03D-11 for atom     1.
 Variable       Old X    -DE/DX   Delta X   Delta X   Delta X     New X
                                 (Linear)    (Quad)   (Total)
    R1        2.22644   0.00140   0.00341  -0.00335   0.00006   2.22650
    R2        2.05637   0.00293   0.00099   0.00677   0.00776   2.06413
    R3        2.05637   0.00293   0.00099   0.00677   0.00776   2.06413
    A1        2.12085   0.00120   0.00049   0.00620   0.00669   2.12754
    A2        2.12085   0.00120   0.00049   0.00620   0.00669   2.12754
    A3        2.04149  -0.00240  -0.00098  -0.01241  -0.01338   2.02811
    D1        3.14159   0.00000   0.00000   0.00000   0.00000   3.14159
         Item               Value     Threshold  Converged?
 Maximum Force            0.002927     0.000450     NO 
 RMS     Force            0.001990     0.000300     NO 
 Maximum Displacement     0.007946     0.001800     NO 
 RMS     Displacement     0.005995     0.001200     NO 
 Predicted change in Energy=-4.884742D-05
 GradGradGradGradGradGradGradGradGradGradGradGradGradGradGradGradGradGrad

                          Input orientation:                          
 ---------------------------------------------------------------------
 Center     Atomic      Atomic             Coordinates (Angstroms)
 Number     Number       Type             X           Y           Z
 ---------------------------------------------------------------------
      1          6           0        0.000000    0.000000    0.006375
      2          8           0        0.000000    0.000000    1.184588
      3          1           0        0.927336    0.000000   -0.570818
      4          1           0       -0.927336    0.000000   -0.570818
 ---------------------------------------------------------------------
                    Distance matrix (angstroms):
                    1          2          3          4
     1  C    0.000000
     2  O    1.178213   0.000000
     3  H    1.092293   1.985297   0.000000
     4  H    1.092293   1.985297   1.854671   0.000000
 Stoichiometry    CH2O
 Framework group  C2V[C2(CO),SGV(H2)]
 Deg. of freedom     3
 Full point group                 C2V     NOp   4
 Largest Abelian subgroup         C2V     NOp   4
 Largest concise Abelian subgroup C2      NOp   2
                         Standard orientation:                         
 ---------------------------------------------------------------------
 Center     Atomic      Atomic             Coordinates (Angstroms)
 Number     Number       Type             X           Y           Z
 ---------------------------------------------------------------------
      1          6           0        0.000000    0.000000   -0.516957
      2          8           0        0.000000    0.000000    0.661256
      3          1           0        0.000000    0.927336   -1.094151
      4          1           0        0.000000   -0.927336   -1.094151
 ---------------------------------------------------------------------
 Rotational constants (GHZ):    291.5601863     40.5687934     35.6134083
 Standard basis: CC-pVTZ (5D, 7F)
 There are    43 symmetry adapted cartesian basis functions of A1  symmetry.
 There are    10 symmetry adapted cartesian basis functions of A2  symmetry.
 There are    20 symmetry adapted cartesian basis functions of B1  symmetry.
 There are    27 symmetry adapted cartesian basis functions of B2  symmetry.
 There are    36 symmetry adapted basis functions of A1  symmetry.
 There are    10 symmetry adapted basis functions of A2  symmetry.
 There are    18 symmetry adapted basis functions of B1  symmetry.
 There are    24 symmetry adapted basis functions of B2  symmetry.
    88 basis functions,   138 primitive gaussians,   100 cartesian basis functions
     8 alpha electrons        8 beta electrons
       nuclear repulsion energy        31.9221698722 Hartrees.
 NAtoms=    4 NActive=    4 NUniq=    3 SFac= 1.78D+00 NAtFMM=   60 NAOKFM=F Big=F
 Integral buffers will be    131072 words long.
 Raffenetti 1 integral format.
 Two-electron integral symmetry is turned on.
 One-electron integrals computed using PRISM.
 NBasis=    88 RedAO= T EigKep=  2.80D-03  NBF=    36    10    18    24
 NBsUse=    88 1.00D-06 EigRej= -1.00D+00 NBFU=    36    10    18    24
 Initial guess from the checkpoint file:  "/blue/chm6586/le.chen/hw2/Gau-88446.chk"
 B after Tr=     0.000000    0.000000    0.000000
         Rot=    1.000000    0.000000    0.000000    0.000000 Ang=   0.00 deg.
 Initial guess orbital symmetries:
       Occupied  (A1) (A1) (A1) (A1) (B2) (A1) (B1) (B2)
       Virtual   (A1) (A1) (A1) (A1) (A1) (A1) (A1) (A1) (A1) (A1)
                 (A1) (A1) (A1) (A1) (A1) (A1) (A1) (A1) (A1) (A1)
                 (A1) (A1) (A1) (A1) (A1) (A1) (A1) (A1) (A1) (A1)
                 (A1) (A2) (A2) (A2) (A2) (A2) (A2) (A2) (A2) (A2)
                 (A2) (B1) (B1) (B1) (B1) (B1) (B1) (B1) (B1) (B1)
                 (B1) (B1) (B1) (B1) (B1) (B1) (B1) (B1) (B2) (B2)
                 (B2) (B2) (B2) (B2) (B2) (B2) (B2) (B2) (B2) (B2)
                 (B2) (B2) (B2) (B2) (B2) (B2) (B2) (B2) (B2) (B2)
 Keep R1 ints in memory in symmetry-blocked form, NReq=9709242.
 Requested convergence on RMS density matrix=1.00D-08 within 128 cycles.
 Requested convergence on MAX density matrix=1.00D-06.
 Requested convergence on             energy=1.00D-06.
 No special actions if energy rises.
 SCF Done:  E(RHF) =  -113.913222718     A.U. after    9 cycles
            NFock=  9  Conv=0.19D-08     -V/T= 2.0003
 Calling FoFJK, ICntrl=      2127 FMM=F ISym2X=1 I1Cent= 0 IOpClX= 0 NMat=1 NMatS=1 NMatT=0.
 ***** Axes restored to original set *****
 -------------------------------------------------------------------
 Center     Atomic                   Forces (Hartrees/Bohr)
 Number     Number              X              Y              Z
 -------------------------------------------------------------------
      1        6           0.000000000    0.000000000    0.001266418
      2        8           0.000000000    0.000000000   -0.000141684
      3        1           0.000053734    0.000000000   -0.000562367
      4        1          -0.000053734    0.000000000   -0.000562367
 -------------------------------------------------------------------
 Cartesian Forces:  Max     0.001266418 RMS     0.000434183

 GradGradGradGradGradGradGradGradGradGradGradGradGradGradGradGradGradGrad
 Berny optimization.
 Using GEDIIS/GDIIS optimizer.
 FormGI is forming the generalized inverse of G from B-inverse, IUseBI=4.
 Internal  Forces:  Max     0.000617925 RMS     0.000343891
 Search for a local minimum.
 Step number   3 out of a maximum of  100
 All quantities printed in internal units (Hartrees-Bohrs-Radians)
 Mixed Optimization -- En-DIIS/RFO-DIIS
 Update second derivatives using D2CorX and points    1    2    3
 DE= -5.56D-05 DEPred=-4.88D-05 R= 1.14D+00
 TightC=F SS=  1.41D+00  RLast= 1.97D-02 DXNew= 5.0454D-01 5.9181D-02
 Trust test= 1.14D+00 RLast= 1.97D-02 DXMaxT set to 3.00D-01
 The second derivative matrix:
                          R1        R2        R3        A1        A2
           R1           0.93820
           R2           0.04787   0.34169
           R3           0.04787   0.00674   0.34169
           A1           0.01865  -0.00307  -0.00307   0.15665
           A2           0.01865  -0.00307  -0.00307  -0.00335   0.15665
           A3          -0.03731   0.00613   0.00613   0.00669   0.00669
           D1           0.00000   0.00000   0.00000   0.00000   0.00000
                          A3        D1
           A3           0.14662
           D1           0.00000   0.00230
 ITU=  1  1  0
 Use linear search instead of GDIIS.
     Eigenvalues ---    0.00230   0.13631   0.16000   0.33495   0.34195
     Eigenvalues ---    0.94829
 RFO step:  Lambda=-1.09438693D-06 EMin= 2.30000000D-03
 Quartic linear search produced a step of  0.23508.
 Iteration  1 RMS(Cart)=  0.00188859 RMS(Int)=  0.00000330
 Iteration  2 RMS(Cart)=  0.00000339 RMS(Int)=  0.00000000
 Iteration  3 RMS(Cart)=  0.00000000 RMS(Int)=  0.00000000
 ClnCor:  largest displacement from symmetrization is 6.21D-11 for atom     1.
 Variable       Old X    -DE/DX   Delta X   Delta X   Delta X     New X
                                 (Linear)    (Quad)   (Total)
    R1        2.22650  -0.00014   0.00001  -0.00057  -0.00055   2.22595
    R2        2.06413   0.00034   0.00183  -0.00063   0.00119   2.06533
    R3        2.06413   0.00034   0.00183  -0.00063   0.00119   2.06533
    A1        2.12754   0.00031   0.00157   0.00078   0.00235   2.12989
    A2        2.12754   0.00031   0.00157   0.00078   0.00235   2.12989
    A3        2.02811  -0.00062  -0.00315  -0.00155  -0.00470   2.02341
    D1        3.14159   0.00000   0.00000   0.00000   0.00000   3.14159
         Item               Value     Threshold  Converged?
 Maximum Force            0.000618     0.000450     NO 
 RMS     Force            0.000344     0.000300     NO 
 Maximum Displacement     0.002512     0.001800     NO 
 RMS     Displacement     0.001890     0.001200     NO 
 Predicted change in Energy=-2.606803D-06
 GradGradGradGradGradGradGradGradGradGradGradGradGradGradGradGradGradGrad

                          Input orientation:                          
 ---------------------------------------------------------------------
 Center     Atomic      Atomic             Coordinates (Angstroms)
 Number     Number       Type             X           Y           Z
 ---------------------------------------------------------------------
      1          6           0        0.000000    0.000000    0.007705
      2          8           0        0.000000    0.000000    1.185625
      3          1           0        0.926511    0.000000   -0.572001
      4          1           0       -0.926511    0.000000   -0.572001
 ---------------------------------------------------------------------
                    Distance matrix (angstroms):
                    1          2          3          4
     1  C    0.000000
     2  O    1.177920   0.000000
     3  H    1.092923   1.986875   0.000000
     4  H    1.092923   1.986875   1.853022   0.000000
 Stoichiometry    CH2O
 Framework group  C2V[C2(CO),SGV(H2)]
 Deg. of freedom     3
 Full point group                 C2V     NOp   4
 Largest Abelian subgroup         C2V     NOp   4
 Largest concise Abelian subgroup C2      NOp   2
                         Standard orientation:                         
 ---------------------------------------------------------------------
 Center     Atomic      Atomic             Coordinates (Angstroms)
 Number     Number       Type             X           Y           Z
 ---------------------------------------------------------------------
      1          6           0        0.000000    0.000000   -0.516497
      2          8           0        0.000000    0.000000    0.661423
      3          1           0        0.000000    0.926511   -1.096203
      4          1           0        0.000000   -0.926511   -1.096203
 ---------------------------------------------------------------------
 Rotational constants (GHZ):    292.0793968     40.5482529     35.6053060
 Standard basis: CC-pVTZ (5D, 7F)
 There are    43 symmetry adapted cartesian basis functions of A1  symmetry.
 There are    10 symmetry adapted cartesian basis functions of A2  symmetry.
 There are    20 symmetry adapted cartesian basis functions of B1  symmetry.
 There are    27 symmetry adapted cartesian basis functions of B2  symmetry.
 There are    36 symmetry adapted basis functions of A1  symmetry.
 There are    10 symmetry adapted basis functions of A2  symmetry.
 There are    18 symmetry adapted basis functions of B1  symmetry.
 There are    24 symmetry adapted basis functions of B2  symmetry.
    88 basis functions,   138 primitive gaussians,   100 cartesian basis functions
     8 alpha electrons        8 beta electrons
       nuclear repulsion energy        31.9210374769 Hartrees.
 NAtoms=    4 NActive=    4 NUniq=    3 SFac= 1.78D+00 NAtFMM=   60 NAOKFM=F Big=F
 Integral buffers will be    131072 words long.
 Raffenetti 1 integral format.
 Two-electron integral symmetry is turned on.
 One-electron integrals computed using PRISM.
 NBasis=    88 RedAO= T EigKep=  2.81D-03  NBF=    36    10    18    24
 NBsUse=    88 1.00D-06 EigRej= -1.00D+00 NBFU=    36    10    18    24
 Initial guess from the checkpoint file:  "/blue/chm6586/le.chen/hw2/Gau-88446.chk"
 B after Tr=     0.000000    0.000000    0.000000
         Rot=    1.000000    0.000000    0.000000    0.000000 Ang=   0.00 deg.
 Initial guess orbital symmetries:
       Occupied  (A1) (A1) (A1) (A1) (B2) (A1) (B1) (B2)
       Virtual   (A1) (A1) (A1) (A1) (A1) (A1) (A1) (A1) (A1) (A1)
                 (A1) (A1) (A1) (A1) (A1) (A1) (A1) (A1) (A1) (A1)
                 (A1) (A1) (A1) (A1) (A1) (A1) (A1) (A1) (A1) (A1)
                 (A1) (A2) (A2) (A2) (A2) (A2) (A2) (A2) (A2) (A2)
                 (A2) (B1) (B1) (B1) (B1) (B1) (B1) (B1) (B1) (B1)
                 (B1) (B1) (B1) (B1) (B1) (B1) (B1) (B1) (B2) (B2)
                 (B2) (B2) (B2) (B2) (B2) (B2) (B2) (B2) (B2) (B2)
                 (B2) (B2) (B2) (B2) (B2) (B2) (B2) (B2) (B2) (B2)
 Keep R1 ints in memory in symmetry-blocked form, NReq=9709242.
 Requested convergence on RMS density matrix=1.00D-08 within 128 cycles.
 Requested convergence on MAX density matrix=1.00D-06.
 Requested convergence on             energy=1.00D-06.
 No special actions if energy rises.
 SCF Done:  E(RHF) =  -113.913225301     A.U. after    8 cycles
            NFock=  8  Conv=0.59D-08     -V/T= 2.0003
 Calling FoFJK, ICntrl=      2127 FMM=F ISym2X=1 I1Cent= 0 IOpClX= 0 NMat=1 NMatS=1 NMatT=0.
 ***** Axes restored to original set *****
 -------------------------------------------------------------------
 Center     Atomic                   Forces (Hartrees/Bohr)
 Number     Number              X              Y              Z
 -------------------------------------------------------------------
      1        6           0.000000000    0.000000000   -0.000054393
      2        8           0.000000000    0.000000000    0.000050703
      3        1           0.000013666    0.000000000    0.000001845
      4        1          -0.000013666    0.000000000    0.000001845
 -------------------------------------------------------------------
 Cartesian Forces:  Max     0.000054393 RMS     0.000022192

 GradGradGradGradGradGradGradGradGradGradGradGradGradGradGradGradGradGrad
 Berny optimization.
 Using GEDIIS/GDIIS optimizer.
 FormGI is forming the generalized inverse of G from B-inverse, IUseBI=4.
 Internal  Forces:  Max     0.000050703 RMS     0.000020759
 Search for a local minimum.
 Step number   4 out of a maximum of  100
 All quantities printed in internal units (Hartrees-Bohrs-Radians)
 Mixed Optimization -- En-DIIS/RFO-DIIS
 Swapping is turned off.
 Update second derivatives using D2CorX and points    1    2    3    4
 DE= -2.58D-06 DEPred=-2.61D-06 R= 9.91D-01
 TightC=F SS=  1.41D+00  RLast= 6.02D-03 DXNew= 5.0454D-01 1.8072D-02
 Trust test= 9.91D-01 RLast= 6.02D-03 DXMaxT set to 3.00D-01
 The second derivative matrix:
                          R1        R2        R3        A1        A2
           R1           0.92513
           R2           0.03503   0.33806
           R3           0.03503   0.00311   0.33806
           A1           0.01671  -0.00390  -0.00390   0.15699
           A2           0.01671  -0.00390  -0.00390  -0.00301   0.15699
           A3          -0.03343   0.00780   0.00780   0.00603   0.00603
           D1           0.00000   0.00000   0.00000   0.00000   0.00000
                          A3        D1
           A3           0.14795
           D1           0.00000   0.00230
 ITU=  1  1  1  0
     Eigenvalues ---    0.00230   0.13850   0.16000   0.33495   0.33842
     Eigenvalues ---    0.93130
 En-DIIS/RFO-DIIS IScMMF=        0 using points:     4    3
 RFO step:  Lambda=-3.66477530D-09.
 DidBck=F Rises=F RFO-DIIS coefs:    0.98346    0.01654
 Iteration  1 RMS(Cart)=  0.00004452 RMS(Int)=  0.00000000
 Iteration  2 RMS(Cart)=  0.00000000 RMS(Int)=  0.00000000
 ClnCor:  largest displacement from symmetrization is 2.11D-13 for atom     1.
 Variable       Old X    -DE/DX   Delta X   Delta X   Delta X     New X
                                 (Linear)    (Quad)   (Total)
    R1        2.22595   0.00005   0.00001   0.00005   0.00006   2.22601
    R2        2.06533   0.00001  -0.00002   0.00004   0.00002   2.06535
    R3        2.06533   0.00001  -0.00002   0.00004   0.00002   2.06535
    A1        2.12989  -0.00001  -0.00004  -0.00001  -0.00005   2.12984
    A2        2.12989  -0.00001  -0.00004  -0.00001  -0.00005   2.12984
    A3        2.02341   0.00001   0.00008   0.00002   0.00010   2.02350
    D1        3.14159   0.00000   0.00000   0.00000   0.00000   3.14159
         Item               Value     Threshold  Converged?
 Maximum Force            0.000051     0.000450     YES
 RMS     Force            0.000021     0.000300     YES
 Maximum Displacement     0.000072     0.001800     YES
 RMS     Displacement     0.000045     0.001200     YES
 Predicted change in Energy=-2.593176D-09
 Optimization completed.
    -- Stationary point found.
                           ----------------------------
                           !   Optimized Parameters   !
                           ! (Angstroms and Degrees)  !
 --------------------------                            --------------------------
 ! Name  Definition              Value          Derivative Info.                !
 --------------------------------------------------------------------------------
 ! R1    R(1,2)                  1.1779         -DE/DX =    0.0001              !
 ! R2    R(1,3)                  1.0929         -DE/DX =    0.0                 !
 ! R3    R(1,4)                  1.0929         -DE/DX =    0.0                 !
 ! A1    A(2,1,3)              122.0337         -DE/DX =    0.0                 !
 ! A2    A(2,1,4)              122.0337         -DE/DX =    0.0                 !
 ! A3    A(3,1,4)              115.9326         -DE/DX =    0.0                 !
 ! D1    D(2,1,4,3)            180.0            -DE/DX =    0.0                 !
 --------------------------------------------------------------------------------
 GradGradGradGradGradGradGradGradGradGradGradGradGradGradGradGradGradGrad

                          Input orientation:                          
 ---------------------------------------------------------------------
 Center     Atomic      Atomic             Coordinates (Angstroms)
 Number     Number       Type             X           Y           Z
 ---------------------------------------------------------------------
      1          6           0        0.000000    0.000000    0.007705
      2          8           0        0.000000    0.000000    1.185625
      3          1           0        0.926511    0.000000   -0.572001
      4          1           0       -0.926511    0.000000   -0.572001
 ---------------------------------------------------------------------
                    Distance matrix (angstroms):
                    1          2          3          4
     1  C    0.000000
     2  O    1.177920   0.000000
     3  H    1.092923   1.986875   0.000000
     4  H    1.092923   1.986875   1.853022   0.000000
 Stoichiometry    CH2O
 Framework group  C2V[C2(CO),SGV(H2)]
 Deg. of freedom     3
 Full point group                 C2V     NOp   4
 Largest Abelian subgroup         C2V     NOp   4
 Largest concise Abelian subgroup C2      NOp   2
                         Standard orientation:                         
 ---------------------------------------------------------------------
 Center     Atomic      Atomic             Coordinates (Angstroms)
 Number     Number       Type             X           Y           Z
 ---------------------------------------------------------------------
      1          6           0        0.000000    0.000000   -0.516497
      2          8           0        0.000000    0.000000    0.661423
      3          1           0        0.000000    0.926511   -1.096203
      4          1           0        0.000000   -0.926511   -1.096203
 ---------------------------------------------------------------------
 Rotational constants (GHZ):    292.0793968     40.5482529     35.6053060

 **********************************************************************

            Population analysis using the SCF density.

 **********************************************************************

 Orbital symmetries:
       Occupied  (A1) (A1) (A1) (A1) (B2) (A1) (B1) (B2)
       Virtual   (B1) (A1) (B2) (A1) (A1) (B1) (B2) (A1) (B2) (A1)
                 (A2) (A1) (B1) (B2) (B1) (A1) (B2) (A2) (A1) (B1)
                 (A1) (B2) (B2) (A1) (A1) (A2) (A1) (B1) (A1) (B2)
                 (B1) (A1) (B2) (B2) (A1) (A2) (B1) (B2) (A1) (B1)
                 (A2) (B2) (A1) (B1) (B2) (A1) (A2) (A1) (B2) (B1)
                 (A1) (A2) (B2) (B1) (A1) (B1) (A1) (B2) (B1) (B2)
                 (A2) (A1) (A1) (B2) (A1) (B1) (B2) (B2) (A2) (A1)
                 (B1) (A1) (A2) (A1) (B1) (B2) (A1) (B2) (A1) (A1)
 The electronic state is 1-A1.
 Alpha  occ. eigenvalues --  -20.57226 -11.33155  -1.42223  -0.86745  -0.70072
 Alpha  occ. eigenvalues --   -0.65807  -0.54657  -0.43811
 Alpha virt. eigenvalues --    0.12708   0.14958   0.20868   0.26985   0.44055
 Alpha virt. eigenvalues --    0.44372   0.45722   0.59506   0.63241   0.68329
 Alpha virt. eigenvalues --    0.70838   0.76043   0.86377   0.89295   0.95465
 Alpha virt. eigenvalues --    1.02167   1.07396   1.17935   1.21918   1.22430
 Alpha virt. eigenvalues --    1.34597   1.35558   1.47326   1.66627   1.79172
 Alpha virt. eigenvalues --    1.96407   2.01344   2.18937   2.28742   2.31926
 Alpha virt. eigenvalues --    2.34449   2.51167   2.63407   2.86345   2.86660
 Alpha virt. eigenvalues --    2.93641   3.03425   3.12198   3.17140   3.20533
 Alpha virt. eigenvalues --    3.26164   3.46095   3.46732   3.53134   3.62126
 Alpha virt. eigenvalues --    3.63861   3.64304   3.74567   3.93107   4.03617
 Alpha virt. eigenvalues --    4.15641   4.19346   4.20614   4.27509   4.48403
 Alpha virt. eigenvalues --    4.53535   4.81288   4.82992   4.92585   5.06311
 Alpha virt. eigenvalues --    5.09851   5.10503   5.37211   5.44528   5.63745
 Alpha virt. eigenvalues --    5.68191   5.69542   6.07886   6.17491   6.34912
 Alpha virt. eigenvalues --    6.69754   6.70177   6.86771   6.90159   7.29357
 Alpha virt. eigenvalues --    7.44981   7.54522   7.61888  11.21476  13.95555
          Condensed to atoms (all electrons):
               1          2          3          4
     1  C    4.327130   0.692281   0.385806   0.385806
     2  O    0.692281   7.773062  -0.077264  -0.077264
     3  H    0.385806  -0.077264   0.747314  -0.106775
     4  H    0.385806  -0.077264  -0.106775   0.747314
 Mulliken charges:
               1
     1  C    0.208976
     2  O   -0.310814
     3  H    0.050919
     4  H    0.050919
 Sum of Mulliken charges =   0.00000
 Mulliken charges with hydrogens summed into heavy atoms:
               1
     1  C    0.310814
     2  O   -0.310814
 Electronic spatial extent (au):  <R**2>=             58.9206
 Charge=              0.0000 electrons
 Dipole moment (field-independent basis, Debye):
    X=              0.0000    Y=              0.0000    Z=             -2.6537  Tot=              2.6537
 Quadrupole moment (field-independent basis, Debye-Ang):
   XX=            -11.5472   YY=            -11.4086   ZZ=            -12.0058
   XY=              0.0000   XZ=              0.0000   YZ=              0.0000
 Traceless Quadrupole moment (field-independent basis, Debye-Ang):
   XX=              0.1067   YY=              0.2453   ZZ=             -0.3519
   XY=              0.0000   XZ=              0.0000   YZ=              0.0000
 Octapole moment (field-independent basis, Debye-Ang**2):
  XXX=              0.0000  YYY=              0.0000  ZZZ=              0.3277  XYY=              0.0000
  XXY=              0.0000  XXZ=              0.5189  XZZ=              0.0000  YZZ=              0.0000
  YYZ=             -0.5004  XYZ=              0.0000
 Hexadecapole moment (field-independent basis, Debye-Ang**3):
 XXXX=             -9.9001 YYYY=            -17.3436 ZZZZ=            -43.0612 XXXY=              0.0000
 XXXZ=              0.0000 YYYX=              0.0000 YYYZ=              0.0000 ZZZX=              0.0000
 ZZZY=              0.0000 XXYY=             -4.8668 XXZZ=             -8.7625 YYZZ=             -9.5870
 XXYZ=              0.0000 YYXZ=              0.0000 ZZXY=              0.0000
 N-N= 3.192103747690D+01 E-N=-3.324752328397D+02  KE= 1.138806369802D+02
 Symmetry A1   KE= 1.036545143519D+02
 Symmetry A2   KE= 4.648402985921D-33
 Symmetry B1   KE= 3.503844523097D+00
 Symmetry B2   KE= 6.722278105256D+00
 B after Tr=     0.000000    0.000000    0.027698
         Rot=    1.000000    0.000000    0.000000    0.000000 Ang=   0.00 deg.
 Final structure in terms of initial Z-matrix:
 C
 O,1,B1
 H,1,B2,2,A2
 H,1,B3,2,A3,3,D3,0
      Variables:
 B1=1.17792028
 B2=1.09292339
 A2=122.03368225
 B3=1.09292339
 A3=122.03368225
 D3=180.
 1\1\GINC-C0700A-S2\FOpt\RHF\CC-pVTZ\C1H2O1\LE.CHEN\19-Sep-2021\0\\#n H
 F/cc-pvtz Opt=(MaxCyc=500)\\Title\\0,1\C,0.,0.,0.0077047923\O,0.,0.,1.
 1856250735\H,0.9265109727,0.,-0.5720011322\H,-0.9265109727,0.,-0.57200
 11322\\Version=AS64L-G09RevD.01\State=1-A1\HF=-113.9132253\RMSD=5.896e
 -09\RMSF=2.219e-05\Dipole=0.,0.,-1.0440617\Quadrupole=0.18236,0.079292
 6,-0.2616525,0.,0.,0.\PG=C02V [C2(C1O1),SGV(H2)]\\@


 Experience is what you get when you don't get what you want.
 -- Dan Stanford
 Job cpu time:       0 days  0 hours  0 minutes  9.4 seconds.
 File lengths (MBytes):  RWF=      6 Int=      0 D2E=      0 Chk=      2 Scr=      1
 Normal termination of Gaussian 09 at Sun Sep 19 19:08:40 2021.
