 Entering Gaussian System, Link 0=g09
 Initial command:
 /apps/gaussian/g09/amd-sse4a/l1.exe "/blue/chm6586/le.chen/hw2/Gau-98933.inp" -scrdir="/blue/chm6586/le.chen/hw2/"
 Entering Link 1 = /apps/gaussian/g09/amd-sse4a/l1.exe PID=     98935.
  
 Copyright (c) 1988,1990,1992,1993,1995,1998,2003,2009,2013,
            Gaussian, Inc.  All Rights Reserved.
  
 This is part of the Gaussian(R) 09 program.  It is based on
 the Gaussian(R) 03 system (copyright 2003, Gaussian, Inc.),
 the Gaussian(R) 98 system (copyright 1998, Gaussian, Inc.),
 the Gaussian(R) 94 system (copyright 1995, Gaussian, Inc.),
 the Gaussian 92(TM) system (copyright 1992, Gaussian, Inc.),
 the Gaussian 90(TM) system (copyright 1990, Gaussian, Inc.),
 the Gaussian 88(TM) system (copyright 1988, Gaussian, Inc.),
 the Gaussian 86(TM) system (copyright 1986, Carnegie Mellon
 University), and the Gaussian 82(TM) system (copyright 1983,
 Carnegie Mellon University). Gaussian is a federally registered
 trademark of Gaussian, Inc.
  
 This software contains proprietary and confidential information,
 including trade secrets, belonging to Gaussian, Inc.
  
 This software is provided under written license and may be
 used, copied, transmitted, or stored only in accord with that
 written license.
  
 The following legend is applicable only to US Government
 contracts under FAR:
  
                    RESTRICTED RIGHTS LEGEND
  
 Use, reproduction and disclosure by the US Government is
 subject to restrictions as set forth in subparagraphs (a)
 and (c) of the Commercial Computer Software - Restricted
 Rights clause in FAR 52.227-19.
  
 Gaussian, Inc.
 340 Quinnipiac St., Bldg. 40, Wallingford CT 06492
  
  
 ---------------------------------------------------------------
 Warning -- This program may not be used in any manner that
 competes with the business of Gaussian, Inc. or will provide
 assistance to any competitor of Gaussian, Inc.  The licensee
 of this program is prohibited from giving any competitor of
 Gaussian, Inc. access to this program.  By using this program,
 the user acknowledges that Gaussian, Inc. is engaged in the
 business of creating and licensing software in the field of
 computational chemistry and represents and warrants to the
 licensee that it is not a competitor of Gaussian, Inc. and that
 it will not use this program in any manner prohibited above.
 ---------------------------------------------------------------
  

 Cite this work as:
 Gaussian 09, Revision D.01,
 M. J. Frisch, G. W. Trucks, H. B. Schlegel, G. E. Scuseria, 
 M. A. Robb, J. R. Cheeseman, G. Scalmani, V. Barone, B. Mennucci, 
 G. A. Petersson, H. Nakatsuji, M. Caricato, X. Li, H. P. Hratchian, 
 A. F. Izmaylov, J. Bloino, G. Zheng, J. L. Sonnenberg, M. Hada, 
 M. Ehara, K. Toyota, R. Fukuda, J. Hasegawa, M. Ishida, T. Nakajima, 
 Y. Honda, O. Kitao, H. Nakai, T. Vreven, J. A. Montgomery, Jr., 
 J. E. Peralta, F. Ogliaro, M. Bearpark, J. J. Heyd, E. Brothers, 
 K. N. Kudin, V. N. Staroverov, T. Keith, R. Kobayashi, J. Normand, 
 K. Raghavachari, A. Rendell, J. C. Burant, S. S. Iyengar, J. Tomasi, 
 M. Cossi, N. Rega, J. M. Millam, M. Klene, J. E. Knox, J. B. Cross, 
 V. Bakken, C. Adamo, J. Jaramillo, R. Gomperts, R. E. Stratmann, 
 O. Yazyev, A. J. Austin, R. Cammi, C. Pomelli, J. W. Ochterski, 
 R. L. Martin, K. Morokuma, V. G. Zakrzewski, G. A. Voth, 
 P. Salvador, J. J. Dannenberg, S. Dapprich, A. D. Daniels, 
 O. Farkas, J. B. Foresman, J. V. Ortiz, J. Cioslowski, 
 and D. J. Fox, Gaussian, Inc., Wallingford CT, 2013.
 
 ******************************************
 Gaussian 09:  AS64L-G09RevD.01 24-Apr-2013
                19-Sep-2021 
 ******************************************
 ------------------------------
 #n HF/cc-pvdz Opt=(MaxCyc=500)
 ------------------------------
 1/6=500,18=20,19=15,38=1/1,3;
 2/9=110,12=2,17=6,18=5,40=1/2;
 3/5=16,11=9,16=1,25=1,30=1,71=1/1,2,3;
 4//1;
 5/5=2,38=5/2;
 6/7=2,8=2,9=2,10=2,28=1/1;
 7//1,2,3,16;
 1/6=500,18=20,19=15/3(2);
 2/9=110/2;
 99//99;
 2/9=110/2;
 3/5=16,11=9,16=1,25=1,30=1,71=1/1,2,3;
 4/5=5,16=3,69=1/1;
 5/5=2,38=5/2;
 7//1,2,3,16;
 1/6=500,18=20,19=15/3(-5);
 2/9=110/2;
 6/7=2,8=2,9=2,10=2,19=2,28=1/1;
 99/9=1/99;
 -----
 Title
 -----
 Symbolic Z-matrix:
 Charge =  0 Multiplicity = 1
 C
 O                    1    B1
 Cl                   1    B2       2    A2
 H                    1    B3       2    A3       3    D3       0
       Variables:
  B1                    1.22696                  
  B2                    1.73068                  
  A2                  127.34728                  
  B3                    1.10229                  
  A3                  119.93975                  
  D3                  180.                       
 

 GradGradGradGradGradGradGradGradGradGradGradGradGradGradGradGradGradGrad
 Berny optimization.
 Initialization pass.
                           ----------------------------
                           !    Initial Parameters    !
                           ! (Angstroms and Degrees)  !
 --------------------------                            --------------------------
 ! Name  Definition              Value          Derivative Info.                !
 --------------------------------------------------------------------------------
 ! R1    R(1,2)                  1.227          estimate D2E/DX2                !
 ! R2    R(1,3)                  1.7307         estimate D2E/DX2                !
 ! R3    R(1,4)                  1.1023         estimate D2E/DX2                !
 ! A1    A(2,1,3)              127.3473         estimate D2E/DX2                !
 ! A2    A(2,1,4)              119.9398         estimate D2E/DX2                !
 ! A3    A(3,1,4)              112.713          estimate D2E/DX2                !
 ! D1    D(2,1,4,3)            180.0            estimate D2E/DX2                !
 --------------------------------------------------------------------------------
 Trust Radius=3.00D-01 FncErr=1.00D-07 GrdErr=1.00D-07
 Number of steps in this run=    100 maximum allowed number of steps=    100.
 GradGradGradGradGradGradGradGradGradGradGradGradGradGradGradGradGradGrad

                          Input orientation:                          
 ---------------------------------------------------------------------
 Center     Atomic      Atomic             Coordinates (Angstroms)
 Number     Number       Type             X           Y           Z
 ---------------------------------------------------------------------
      1          6           0        0.000000    0.000000    0.000000
      2          8           0        0.000000    0.000000    1.226960
      3         17           0        1.375844    0.000000   -1.049908
      4          1           0       -0.955190    0.000000   -0.550141
 ---------------------------------------------------------------------
                    Distance matrix (angstroms):
                    1          2          3          4
     1  C    0.000000
     2  O    1.226960   0.000000
     3  Cl   1.730680   2.660277   0.000000
     4  H    1.102290   2.017542   2.384007   0.000000
 Stoichiometry    CHClO
 Framework group  CS[SG(CHClO)]
 Deg. of freedom     5
 Full point group                 CS      NOp   2
 Largest Abelian subgroup         CS      NOp   2
 Largest concise Abelian subgroup C1      NOp   1
                         Standard orientation:                         
 ---------------------------------------------------------------------
 Center     Atomic      Atomic             Coordinates (Angstroms)
 Number     Number       Type             X           Y           Z
 ---------------------------------------------------------------------
      1          6           0        0.000000    0.750623    0.000000
      2          8           0        1.145957    1.189045    0.000000
      3         17           0       -0.488972   -0.909545    0.000000
      4          1           0       -0.855133    1.446174    0.000000
 ---------------------------------------------------------------------
 Rotational constants (GHZ):     83.3229860      5.9905487      5.5887432
 Standard basis: CC-pVDZ (5D, 7F)
 There are    40 symmetry adapted cartesian basis functions of A'  symmetry.
 There are    14 symmetry adapted cartesian basis functions of A"  symmetry.
 There are    37 symmetry adapted basis functions of A'  symmetry.
 There are    14 symmetry adapted basis functions of A"  symmetry.
    51 basis functions,   144 primitive gaussians,    54 cartesian basis functions
    16 alpha electrons       16 beta electrons
       nuclear repulsion energy        87.6948422314 Hartrees.
 NAtoms=    4 NActive=    4 NUniq=    4 SFac= 1.00D+00 NAtFMM=   60 NAOKFM=F Big=F
 Integral buffers will be    131072 words long.
 Raffenetti 1 integral format.
 Two-electron integral symmetry is turned on.
 One-electron integrals computed using PRISM.
 NBasis=    51 RedAO= T EigKep=  2.05D-02  NBF=    37    14
 NBsUse=    51 1.00D-06 EigRej= -1.00D+00 NBFU=    37    14
 ExpMin= 1.22D-01 ExpMax= 1.28D+05 ExpMxC= 1.24D+03 IAcc=2 IRadAn=         4 AccDes= 0.00D+00
 Harris functional with IExCor=  205 and IRadAn=       4 diagonalized for initial guess.
 HarFok:  IExCor=  205 AccDes= 0.00D+00 IRadAn=         4 IDoV= 1 UseB2=F ITyADJ=14
 ICtDFT=  3500011 ScaDFX=  1.000000  1.000000  1.000000  1.000000
 FoFCou: FMM=F IPFlag=           0 FMFlag=      100000 FMFlg1=           0
         NFxFlg=           0 DoJE=T BraDBF=F KetDBF=T FulRan=T
         wScrn=  0.000000 ICntrl=     500 IOpCl=  0 I1Cent=   200000004 NGrid=           0
         NMat0=    1 NMatS0=      1 NMatT0=    0 NMatD0=    1 NMtDS0=    0 NMtDT0=    0
 Petite list used in FoFCou.
 Initial guess orbital symmetries:
       Occupied  (A') (A') (A') (A') (A') (A') (A") (A') (A') (A')
                 (A') (A') (A") (A') (A") (A')
       Virtual   (A") (A') (A') (A') (A') (A") (A') (A') (A') (A")
                 (A') (A') (A") (A") (A') (A') (A') (A") (A') (A')
                 (A") (A') (A") (A') (A') (A') (A") (A') (A') (A')
                 (A") (A') (A") (A') (A')
 The electronic state of the initial guess is 1-A'.
 Keep R1 ints in memory in symmetry-blocked form, NReq=1779255.
 Requested convergence on RMS density matrix=1.00D-08 within 128 cycles.
 Requested convergence on MAX density matrix=1.00D-06.
 Requested convergence on             energy=1.00D-06.
 No special actions if energy rises.
 SCF Done:  E(RHF) =  -572.806021168     A.U. after   13 cycles
            NFock= 13  Conv=0.41D-08     -V/T= 2.0003

 **********************************************************************

            Population analysis using the SCF density.

 **********************************************************************

 Orbital symmetries:
       Occupied  (A') (A') (A') (A') (A') (A") (A') (A') (A') (A')
                 (A') (A') (A") (A') (A") (A')
       Virtual   (A") (A') (A') (A') (A') (A") (A') (A') (A') (A")
                 (A') (A') (A") (A") (A') (A') (A') (A') (A") (A")
                 (A') (A') (A") (A') (A') (A") (A') (A') (A') (A')
                 (A") (A') (A") (A') (A')
 The electronic state is 1-A'.
 Alpha  occ. eigenvalues -- -104.86793 -20.60625 -11.42225 -10.59627  -8.06370
 Alpha  occ. eigenvalues --   -8.06028  -8.05996  -1.42582  -1.16481  -0.85345
 Alpha  occ. eigenvalues --   -0.69936  -0.66258  -0.58633  -0.49002  -0.47755
 Alpha  occ. eigenvalues --   -0.46952
 Alpha virt. eigenvalues --    0.10896   0.16533   0.24717   0.36751   0.61387
 Alpha virt. eigenvalues --    0.65048   0.66275   0.70046   0.74279   0.74702
 Alpha virt. eigenvalues --    0.82996   0.88395   0.89284   0.94063   0.94861
 Alpha virt. eigenvalues --    1.01852   1.07355   1.21439   1.24948   1.32293
 Alpha virt. eigenvalues --    1.34769   1.36254   1.58581   1.74001   1.81201
 Alpha virt. eigenvalues --    1.94555   1.95182   2.05838   2.47043   2.63793
 Alpha virt. eigenvalues --    2.99792   3.05034   3.37305   3.58622   3.77751
          Condensed to atoms (all electrons):
               1          2          3          4
     1  C    4.374483   0.668369   0.268817   0.408336
     2  O    0.668369   7.710480  -0.056378  -0.037814
     3  Cl   0.268817  -0.056378  16.951022  -0.071542
     4  H    0.408336  -0.037814  -0.071542   0.604437
 Mulliken charges:
               1
     1  C    0.279995
     2  O   -0.284658
     3  Cl  -0.091920
     4  H    0.096583
 Sum of Mulliken charges =   0.00000
 Mulliken charges with hydrogens summed into heavy atoms:
               1
     1  C    0.376578
     2  O   -0.284658
     3  Cl  -0.091920
 Electronic spatial extent (au):  <R**2>=            219.0301
 Charge=              0.0000 electrons
 Dipole moment (field-independent basis, Debye):
    X=             -2.2767    Y=              0.2351    Z=              0.0000  Tot=              2.2888
 Quadrupole moment (field-independent basis, Debye-Ang):
   XX=            -25.9021   YY=            -23.7172   ZZ=            -23.3260
   XY=             -3.1753   XZ=              0.0000   YZ=              0.0000
 Traceless Quadrupole moment (field-independent basis, Debye-Ang):
   XX=             -1.5870   YY=              0.5979   ZZ=              0.9891
   XY=             -3.1753   XZ=              0.0000   YZ=              0.0000
 Octapole moment (field-independent basis, Debye-Ang**2):
  XXX=             -1.3740  YYY=             -2.6181  ZZZ=              0.0000  XYY=             -4.9965
  XXY=             -1.7419  XXZ=              0.0000  XZZ=              0.8232  YZZ=              0.8862
  YYZ=              0.0000  XYZ=              0.0000
 Hexadecapole moment (field-independent basis, Debye-Ang**3):
 XXXX=            -89.3440 YYYY=           -150.5926 ZZZZ=            -22.5503 XXXY=            -39.9712
 XXXZ=              0.0000 YYYX=            -39.4789 YYYZ=              0.0000 ZZZX=              0.0000
 ZZZY=              0.0000 XXYY=            -41.3907 XXZZ=            -18.0384 YYZZ=            -29.6070
 XXYZ=              0.0000 YYXZ=              0.0000 ZZXY=            -11.9278
 N-N= 8.769484223145D+01 E-N=-1.536595826158D+03  KE= 5.726062244841D+02
 Symmetry A'   KE= 5.233270856475D+02
 Symmetry A"   KE= 4.927913883666D+01
 Calling FoFJK, ICntrl=      2127 FMM=F ISym2X=1 I1Cent= 0 IOpClX= 0 NMat=1 NMatS=1 NMatT=0.
 ***** Axes restored to original set *****
 -------------------------------------------------------------------
 Center     Atomic                   Forces (Hartrees/Bohr)
 Number     Number              X              Y              Z
 -------------------------------------------------------------------
      1        6          -0.028330050    0.000000000    0.103887149
      2        8           0.014694571    0.000000000   -0.107191494
      3       17           0.003119845    0.000000000    0.005201686
      4        1           0.010515635    0.000000000   -0.001897340
 -------------------------------------------------------------------
 Cartesian Forces:  Max     0.107191494 RMS     0.044207888

 GradGradGradGradGradGradGradGradGradGradGradGradGradGradGradGradGradGrad
 Berny optimization.
 FormGI is forming the generalized inverse of G from B-inverse, IUseBI=4.
 Internal  Forces:  Max     0.107191494 RMS     0.041648786
 Search for a local minimum.
 Step number   1 out of a maximum of  100
 All quantities printed in internal units (Hartrees-Bohrs-Radians)
 Mixed Optimization -- RFO/linear search
 Second derivative matrix not updated -- first step.
 The second derivative matrix:
                          R1        R2        R3        A1        A2
           R1           0.92365
           R2           0.00000   0.32437
           R3           0.00000   0.00000   0.33430
           A1           0.00000   0.00000   0.00000   0.25000
           A2           0.00000   0.00000   0.00000   0.00000   0.16000
           A3           0.00000   0.00000   0.00000   0.00000   0.00000
           D1           0.00000   0.00000   0.00000   0.00000   0.00000
                          A3        D1
           A3           0.16000
           D1           0.00000   0.00230
 ITU=  0
     Eigenvalues ---    0.00230   0.16000   0.22000   0.32437   0.33430
     Eigenvalues ---    0.92365
 RFO step:  Lambda=-1.50719806D-02 EMin= 2.30000000D-03
 Linear search not attempted -- first point.
 Iteration  1 RMS(Cart)=  0.05821054 RMS(Int)=  0.00215893
 Iteration  2 RMS(Cart)=  0.00207763 RMS(Int)=  0.00000263
 Iteration  3 RMS(Cart)=  0.00000263 RMS(Int)=  0.00000000
 Iteration  4 RMS(Cart)=  0.00000000 RMS(Int)=  0.00000000
 ClnCor:  largest displacement from symmetrization is 3.30D-09 for atom     1.
 Variable       Old X    -DE/DX   Delta X   Delta X   Delta X     New X
                                 (Linear)    (Quad)   (Total)
    R1        2.31862  -0.10719   0.00000  -0.11419  -0.11419   2.20443
    R2        3.27051  -0.00068   0.00000  -0.00199  -0.00199   3.26852
    R3        2.08303  -0.00817   0.00000  -0.02337  -0.02337   2.05965
    A1        2.22263  -0.01793   0.00000  -0.07627  -0.07627   2.14636
    A2        2.09334   0.01614   0.00000   0.07914   0.07914   2.17248
    A3        1.96721   0.00179   0.00000  -0.00287  -0.00287   1.96434
    D1        3.14159   0.00000   0.00000   0.00000   0.00000   3.14159
         Item               Value     Threshold  Converged?
 Maximum Force            0.107191     0.000450     NO 
 RMS     Force            0.041649     0.000300     NO 
 Maximum Displacement     0.094391     0.001800     NO 
 RMS     Displacement     0.057990     0.001200     NO 
 Predicted change in Energy=-7.729495D-03
 GradGradGradGradGradGradGradGradGradGradGradGradGradGradGradGradGradGrad

                          Input orientation:                          
 ---------------------------------------------------------------------
 Center     Atomic      Atomic             Coordinates (Angstroms)
 Number     Number       Type             X           Y           Z
 ---------------------------------------------------------------------
      1          6           0       -0.027187    0.000000    0.012343
      2          8           0        0.038777    0.000000    1.177010
      3         17           0        1.368213    0.000000   -1.009649
      4          1           0       -0.959149    0.000000   -0.552792
 ---------------------------------------------------------------------
                    Distance matrix (angstroms):
                    1          2          3          4
     1  C    0.000000
     2  O    1.166534   0.000000
     3  Cl   1.729627   2.559078   0.000000
     4  H    1.089922   1.997016   2.371778   0.000000
 Stoichiometry    CHClO
 Framework group  CS[SG(CHClO)]
 Deg. of freedom     5
 Full point group                 CS      NOp   2
 Largest Abelian subgroup         CS      NOp   2
 Largest concise Abelian subgroup C1      NOp   1
                         Standard orientation:                         
 ---------------------------------------------------------------------
 Center     Atomic      Atomic             Coordinates (Angstroms)
 Number     Number       Type             X           Y           Z
 ---------------------------------------------------------------------
      1          6           0        0.000000    0.776889    0.000000
      2          8           0        1.115262    1.118929    0.000000
      3         17           0       -0.474637   -0.886340    0.000000
      4          1           0       -0.853269    1.455021    0.000000
 ---------------------------------------------------------------------
 Rotational constants (GHZ):     79.6488647      6.4013338      5.9251341
 Standard basis: CC-pVDZ (5D, 7F)
 There are    40 symmetry adapted cartesian basis functions of A'  symmetry.
 There are    14 symmetry adapted cartesian basis functions of A"  symmetry.
 There are    37 symmetry adapted basis functions of A'  symmetry.
 There are    14 symmetry adapted basis functions of A"  symmetry.
    51 basis functions,   144 primitive gaussians,    54 cartesian basis functions
    16 alpha electrons       16 beta electrons
       nuclear repulsion energy        89.9296982886 Hartrees.
 NAtoms=    4 NActive=    4 NUniq=    4 SFac= 1.00D+00 NAtFMM=   60 NAOKFM=F Big=F
 Integral buffers will be    131072 words long.
 Raffenetti 1 integral format.
 Two-electron integral symmetry is turned on.
 One-electron integrals computed using PRISM.
 NBasis=    51 RedAO= T EigKep=  1.89D-02  NBF=    37    14
 NBsUse=    51 1.00D-06 EigRej= -1.00D+00 NBFU=    37    14
 Initial guess from the checkpoint file:  "/blue/chm6586/le.chen/hw2/Gau-98935.chk"
 B after Tr=     0.000000    0.000000    0.000000
         Rot=    0.999993    0.000000    0.000000    0.003705 Ang=   0.42 deg.
 Initial guess orbital symmetries:
       Occupied  (A') (A') (A') (A') (A') (A") (A') (A') (A') (A')
                 (A') (A') (A") (A') (A") (A')
       Virtual   (A') (A') (A') (A') (A') (A') (A') (A') (A') (A')
                 (A') (A') (A') (A') (A') (A') (A') (A') (A') (A')
                 (A') (A') (A') (A') (A") (A") (A") (A") (A") (A")
                 (A") (A") (A") (A") (A")
 ExpMin= 1.22D-01 ExpMax= 1.28D+05 ExpMxC= 1.24D+03 IAcc=2 IRadAn=         4 AccDes= 0.00D+00
 Harris functional with IExCor=  205 and IRadAn=       4 diagonalized for initial guess.
 HarFok:  IExCor=  205 AccDes= 0.00D+00 IRadAn=         4 IDoV= 1 UseB2=F ITyADJ=14
 ICtDFT=  3500011 ScaDFX=  1.000000  1.000000  1.000000  1.000000
 FoFCou: FMM=F IPFlag=           0 FMFlag=      100000 FMFlg1=           0
         NFxFlg=           0 DoJE=T BraDBF=F KetDBF=T FulRan=T
         wScrn=  0.000000 ICntrl=     500 IOpCl=  0 I1Cent=   200000004 NGrid=           0
         NMat0=    1 NMatS0=      1 NMatT0=    0 NMatD0=    1 NMtDS0=    0 NMtDT0=    0
 Petite list used in FoFCou.
 Keep R1 ints in memory in symmetry-blocked form, NReq=1779465.
 Requested convergence on RMS density matrix=1.00D-08 within 128 cycles.
 Requested convergence on MAX density matrix=1.00D-06.
 Requested convergence on             energy=1.00D-06.
 No special actions if energy rises.
 SCF Done:  E(RHF) =  -572.814154679     A.U. after   12 cycles
            NFock= 12  Conv=0.71D-08     -V/T= 1.9998
 Calling FoFJK, ICntrl=      2127 FMM=F ISym2X=1 I1Cent= 0 IOpClX= 0 NMat=1 NMatS=1 NMatT=0.
 ***** Axes restored to original set *****
 -------------------------------------------------------------------
 Center     Atomic                   Forces (Hartrees/Bohr)
 Number     Number              X              Y              Z
 -------------------------------------------------------------------
      1        6          -0.010239154    0.000000000    0.016024324
      2        8           0.000347269    0.000000000   -0.002082882
      3       17           0.009794653    0.000000000   -0.009674499
      4        1           0.000097232    0.000000000   -0.004266942
 -------------------------------------------------------------------
 Cartesian Forces:  Max     0.016024324 RMS     0.006915114

 GradGradGradGradGradGradGradGradGradGradGradGradGradGradGradGradGradGrad
 Berny optimization.
 Using GEDIIS/GDIIS optimizer.
 FormGI is forming the generalized inverse of G from B-inverse, IUseBI=4.
 Internal  Forces:  Max     0.013618383 RMS     0.005712531
 Search for a local minimum.
 Step number   2 out of a maximum of  100
 All quantities printed in internal units (Hartrees-Bohrs-Radians)
 Mixed Optimization -- RFO/linear search
 Update second derivatives using D2CorX and points    1    2
 DE= -8.13D-03 DEPred=-7.73D-03 R= 1.05D+00
 TightC=F SS=  1.41D+00  RLast= 1.60D-01 DXNew= 5.0454D-01 4.8072D-01
 Trust test= 1.05D+00 RLast= 1.60D-01 DXMaxT set to 4.81D-01
 The second derivative matrix:
                          R1        R2        R3        A1        A2
           R1           0.91225
           R2           0.09681   0.33814
           R3           0.01695   0.00959   0.33730
           A1           0.00347   0.01825   0.00361   0.25167
           A2          -0.00318  -0.01224  -0.00248  -0.00127   0.16096
           A3          -0.04959  -0.00631  -0.00478  -0.00931   0.00624
           D1           0.00000   0.00000   0.00000   0.00000   0.00000
                          A3        D1
           A3           0.16286
           D1           0.00000   0.00230
 ITU=  1  0
 Use linear search instead of GDIIS.
     Eigenvalues ---    0.00230   0.15349   0.22661   0.32230   0.34071
     Eigenvalues ---    0.93112
 RFO step:  Lambda=-8.08791431D-04 EMin= 2.30000000D-03
 Quartic linear search produced a step of  0.01455.
 Iteration  1 RMS(Cart)=  0.01584876 RMS(Int)=  0.00018011
 Iteration  2 RMS(Cart)=  0.00019952 RMS(Int)=  0.00000001
 Iteration  3 RMS(Cart)=  0.00000001 RMS(Int)=  0.00000000
 ClnCor:  largest displacement from symmetrization is 1.66D-09 for atom     1.
 Variable       Old X    -DE/DX   Delta X   Delta X   Delta X     New X
                                 (Linear)    (Quad)   (Total)
    R1        2.20443  -0.00206  -0.00166  -0.00646  -0.00812   2.19631
    R2        3.26852   0.01362  -0.00003   0.04242   0.04239   3.31091
    R3        2.05965   0.00213  -0.00034   0.00567   0.00533   2.06499
    A1        2.14636   0.00186  -0.00111   0.00623   0.00512   2.15148
    A2        2.17248   0.00288   0.00115   0.02202   0.02317   2.19565
    A3        1.96434  -0.00474  -0.00004  -0.02825  -0.02829   1.93605
    D1        3.14159   0.00000   0.00000   0.00000   0.00000   3.14159
         Item               Value     Threshold  Converged?
 Maximum Force            0.013618     0.000450     NO 
 RMS     Force            0.005713     0.000300     NO 
 Maximum Displacement     0.023309     0.001800     NO 
 RMS     Displacement     0.015884     0.001200     NO 
 Predicted change in Energy=-4.109984D-04
 GradGradGradGradGradGradGradGradGradGradGradGradGradGradGradGradGradGrad

                          Input orientation:                          
 ---------------------------------------------------------------------
 Center     Atomic      Atomic             Coordinates (Angstroms)
 Number     Number       Type             X           Y           Z
 ---------------------------------------------------------------------
      1          6           0       -0.032718    0.000000    0.024678
      2          8           0        0.036386    0.000000    1.184859
      3         17           0        1.372412    0.000000   -1.021898
      4          1           0       -0.955426    0.000000   -0.560727
 ---------------------------------------------------------------------
                    Distance matrix (angstroms):
                    1          2          3          4
     1  C    0.000000
     2  O    1.162238   0.000000
     3  Cl   1.752059   2.579679   0.000000
     4  H    1.092744   2.007676   2.373080   0.000000
 Stoichiometry    CHClO
 Framework group  CS[SG(CHClO)]
 Deg. of freedom     5
 Full point group                 CS      NOp   2
 Largest Abelian subgroup         CS      NOp   2
 Largest concise Abelian subgroup C1      NOp   1
                         Standard orientation:                         
 ---------------------------------------------------------------------
 Center     Atomic      Atomic             Coordinates (Angstroms)
 Number     Number       Type             X           Y           Z
 ---------------------------------------------------------------------
      1          6           0        0.000000    0.787969    0.000000
      2          8           0        1.106996    1.142027    0.000000
      3         17           0       -0.469243   -0.900083    0.000000
      4          1           0       -0.878836    1.437382    0.000000
 ---------------------------------------------------------------------
 Rotational constants (GHZ):     79.8877444      6.2864974      5.8278911
 Standard basis: CC-pVDZ (5D, 7F)
 There are    40 symmetry adapted cartesian basis functions of A'  symmetry.
 There are    14 symmetry adapted cartesian basis functions of A"  symmetry.
 There are    37 symmetry adapted basis functions of A'  symmetry.
 There are    14 symmetry adapted basis functions of A"  symmetry.
    51 basis functions,   144 primitive gaussians,    54 cartesian basis functions
    16 alpha electrons       16 beta electrons
       nuclear repulsion energy        89.3651951323 Hartrees.
 NAtoms=    4 NActive=    4 NUniq=    4 SFac= 1.00D+00 NAtFMM=   60 NAOKFM=F Big=F
 Integral buffers will be    131072 words long.
 Raffenetti 1 integral format.
 Two-electron integral symmetry is turned on.
 One-electron integrals computed using PRISM.
 NBasis=    51 RedAO= T EigKep=  1.96D-02  NBF=    37    14
 NBsUse=    51 1.00D-06 EigRej= -1.00D+00 NBFU=    37    14
 Initial guess from the checkpoint file:  "/blue/chm6586/le.chen/hw2/Gau-98935.chk"
 B after Tr=     0.000000    0.000000    0.000000
         Rot=    0.999982    0.000000    0.000000   -0.005965 Ang=  -0.68 deg.
 Initial guess orbital symmetries:
       Occupied  (A') (A') (A') (A') (A') (A") (A') (A') (A') (A')
                 (A') (A') (A") (A') (A") (A')
       Virtual   (A') (A') (A') (A') (A') (A') (A') (A') (A') (A')
                 (A') (A') (A') (A') (A') (A') (A') (A') (A') (A')
                 (A') (A') (A') (A') (A") (A") (A") (A") (A") (A")
                 (A") (A") (A") (A") (A")
 ExpMin= 1.22D-01 ExpMax= 1.28D+05 ExpMxC= 1.24D+03 IAcc=2 IRadAn=         4 AccDes= 0.00D+00
 Harris functional with IExCor=  205 and IRadAn=       4 diagonalized for initial guess.
 HarFok:  IExCor=  205 AccDes= 0.00D+00 IRadAn=         4 IDoV= 1 UseB2=F ITyADJ=14
 ICtDFT=  3500011 ScaDFX=  1.000000  1.000000  1.000000  1.000000
 FoFCou: FMM=F IPFlag=           0 FMFlag=      100000 FMFlg1=           0
         NFxFlg=           0 DoJE=T BraDBF=F KetDBF=T FulRan=T
         wScrn=  0.000000 ICntrl=     500 IOpCl=  0 I1Cent=   200000004 NGrid=           0
         NMat0=    1 NMatS0=      1 NMatT0=    0 NMatD0=    1 NMtDS0=    0 NMtDT0=    0
 Petite list used in FoFCou.
 Keep R1 ints in memory in symmetry-blocked form, NReq=1779409.
 Requested convergence on RMS density matrix=1.00D-08 within 128 cycles.
 Requested convergence on MAX density matrix=1.00D-06.
 Requested convergence on             energy=1.00D-06.
 No special actions if energy rises.
 SCF Done:  E(RHF) =  -572.814696436     A.U. after   11 cycles
            NFock= 11  Conv=0.74D-08     -V/T= 1.9999
 Calling FoFJK, ICntrl=      2127 FMM=F ISym2X=1 I1Cent= 0 IOpClX= 0 NMat=1 NMatS=1 NMatT=0.
 ***** Axes restored to original set *****
 -------------------------------------------------------------------
 Center     Atomic                   Forces (Hartrees/Bohr)
 Number     Number              X              Y              Z
 -------------------------------------------------------------------
      1        6          -0.005298795    0.000000000    0.003189678
      2        8           0.000659710    0.000000000    0.001302873
      3       17           0.003896048    0.000000000   -0.003429130
      4        1           0.000743036    0.000000000   -0.001063421
 -------------------------------------------------------------------
 Cartesian Forces:  Max     0.005298795 RMS     0.002398004

 GradGradGradGradGradGradGradGradGradGradGradGradGradGradGradGradGradGrad
 Berny optimization.
 Using GEDIIS/GDIIS optimizer.
 FormGI is forming the generalized inverse of G from B-inverse, IUseBI=4.
 Internal  Forces:  Max     0.005172941 RMS     0.002142808
 Search for a local minimum.
 Step number   3 out of a maximum of  100
 All quantities printed in internal units (Hartrees-Bohrs-Radians)
 Mixed Optimization -- RFO/linear search
 Update second derivatives using D2CorX and points    1    2    3
 DE= -5.42D-04 DEPred=-4.11D-04 R= 1.32D+00
 TightC=F SS=  1.41D+00  RLast= 5.70D-02 DXNew= 8.0847D-01 1.7115D-01
 Trust test= 1.32D+00 RLast= 5.70D-02 DXMaxT set to 4.81D-01
 The second derivative matrix:
                          R1        R2        R3        A1        A2
           R1           0.96213
           R2           0.08190   0.24398
           R3           0.00488   0.00716   0.33943
           A1          -0.00122   0.00887   0.00377   0.25070
           A2          -0.00506  -0.03876  -0.00341  -0.00385   0.15341
           A3          -0.03664   0.01477  -0.00610  -0.00759   0.01241
           D1           0.00000   0.00000   0.00000   0.00000   0.00000
                          A3        D1
           A3           0.15972
           D1           0.00000   0.00230
 ITU=  1  1  0
 Use linear search instead of GDIIS.
     Eigenvalues ---    0.00230   0.12781   0.22467   0.25571   0.34035
     Eigenvalues ---    0.97223
 RFO step:  Lambda=-2.31632176D-05 EMin= 2.30000000D-03
 Quartic linear search produced a step of  0.55998.
 Iteration  1 RMS(Cart)=  0.00926058 RMS(Int)=  0.00005851
 Iteration  2 RMS(Cart)=  0.00005911 RMS(Int)=  0.00000000
 Iteration  3 RMS(Cart)=  0.00000000 RMS(Int)=  0.00000000
 ClnCor:  largest displacement from symmetrization is 1.79D-09 for atom     1.
 Variable       Old X    -DE/DX   Delta X   Delta X   Delta X     New X
                                 (Linear)    (Quad)   (Total)
    R1        2.19631   0.00134  -0.00455   0.00313  -0.00141   2.19490
    R2        3.31091   0.00517   0.02374   0.00283   0.02657   3.33748
    R3        2.06499  -0.00006   0.00299  -0.00367  -0.00068   2.06431
    A1        2.15148   0.00004   0.00287  -0.00434  -0.00147   2.15001
    A2        2.19565   0.00132   0.01297   0.00350   0.01647   2.21212
    A3        1.93605  -0.00136  -0.01584   0.00084  -0.01500   1.92105
    D1        3.14159   0.00000   0.00000   0.00000   0.00000   3.14159
         Item               Value     Threshold  Converged?
 Maximum Force            0.005173     0.000450     NO 
 RMS     Force            0.002143     0.000300     NO 
 Maximum Displacement     0.012277     0.001800     NO 
 RMS     Displacement     0.009259     0.001200     NO 
 Predicted change in Energy=-8.161787D-05
 GradGradGradGradGradGradGradGradGradGradGradGradGradGradGradGradGradGrad

                          Input orientation:                          
 ---------------------------------------------------------------------
 Center     Atomic      Atomic             Coordinates (Angstroms)
 Number     Number       Type             X           Y           Z
 ---------------------------------------------------------------------
      1          6           0       -0.037878    0.000000    0.030813
      2          8           0        0.036356    0.000000    1.189928
      3         17           0        1.375363    0.000000   -1.028395
      4          1           0       -0.953187    0.000000   -0.565435
 ---------------------------------------------------------------------
                    Distance matrix (angstroms):
                    1          2          3          4
     1  C    0.000000
     2  O    1.161489   0.000000
     3  Cl   1.766118   2.591118   0.000000
     4  H    1.092383   2.015067   2.374126   0.000000
 Stoichiometry    CHClO
 Framework group  CS[SG(CHClO)]
 Deg. of freedom     5
 Full point group                 CS      NOp   2
 Largest Abelian subgroup         CS      NOp   2
 Largest concise Abelian subgroup C1      NOp   1
                         Standard orientation:                         
 ---------------------------------------------------------------------
 Center     Atomic      Atomic             Coordinates (Angstroms)
 Number     Number       Type             X           Y           Z
 ---------------------------------------------------------------------
      1          6           0        0.000000    0.796054    0.000000
      2          8           0        1.105762    1.151509    0.000000
      3         17           0       -0.468002   -0.906928    0.000000
      4          1           0       -0.890053    1.429383    0.000000
 ---------------------------------------------------------------------
 Rotational constants (GHZ):     79.5177241      6.2232479      5.7715524
 Standard basis: CC-pVDZ (5D, 7F)
 There are    40 symmetry adapted cartesian basis functions of A'  symmetry.
 There are    14 symmetry adapted cartesian basis functions of A"  symmetry.
 There are    37 symmetry adapted basis functions of A'  symmetry.
 There are    14 symmetry adapted basis functions of A"  symmetry.
    51 basis functions,   144 primitive gaussians,    54 cartesian basis functions
    16 alpha electrons       16 beta electrons
       nuclear repulsion energy        89.0024333414 Hartrees.
 NAtoms=    4 NActive=    4 NUniq=    4 SFac= 1.00D+00 NAtFMM=   60 NAOKFM=F Big=F
 Integral buffers will be    131072 words long.
 Raffenetti 1 integral format.
 Two-electron integral symmetry is turned on.
 One-electron integrals computed using PRISM.
 NBasis=    51 RedAO= T EigKep=  2.00D-02  NBF=    37    14
 NBsUse=    51 1.00D-06 EigRej= -1.00D+00 NBFU=    37    14
 Initial guess from the checkpoint file:  "/blue/chm6586/le.chen/hw2/Gau-98935.chk"
 B after Tr=     0.000000    0.000000    0.000000
         Rot=    0.999998    0.000000    0.000000   -0.002156 Ang=  -0.25 deg.
 Initial guess orbital symmetries:
       Occupied  (A') (A') (A') (A') (A') (A") (A') (A') (A') (A')
                 (A') (A') (A") (A') (A") (A')
       Virtual   (A') (A') (A') (A') (A') (A') (A') (A') (A') (A')
                 (A') (A') (A') (A') (A') (A') (A') (A') (A') (A')
                 (A') (A') (A') (A') (A") (A") (A") (A") (A") (A")
                 (A") (A") (A") (A") (A")
 Keep R1 ints in memory in symmetry-blocked form, NReq=1779339.
 Requested convergence on RMS density matrix=1.00D-08 within 128 cycles.
 Requested convergence on MAX density matrix=1.00D-06.
 Requested convergence on             energy=1.00D-06.
 No special actions if energy rises.
 SCF Done:  E(RHF) =  -572.814784799     A.U. after   11 cycles
            NFock= 11  Conv=0.31D-08     -V/T= 1.9999
 Calling FoFJK, ICntrl=      2127 FMM=F ISym2X=1 I1Cent= 0 IOpClX= 0 NMat=1 NMatS=1 NMatT=0.
 ***** Axes restored to original set *****
 -------------------------------------------------------------------
 Center     Atomic                   Forces (Hartrees/Bohr)
 Number     Number              X              Y              Z
 -------------------------------------------------------------------
      1        6          -0.000074310    0.000000000    0.000321030
      2        8          -0.000148977    0.000000000   -0.000423957
      3       17           0.000308042    0.000000000   -0.000138606
      4        1          -0.000084754    0.000000000    0.000241532
 -------------------------------------------------------------------
 Cartesian Forces:  Max     0.000423957 RMS     0.000202101

 GradGradGradGradGradGradGradGradGradGradGradGradGradGradGradGradGradGrad
 Berny optimization.
 Using GEDIIS/GDIIS optimizer.
 FormGI is forming the generalized inverse of G from B-inverse, IUseBI=4.
 Internal  Forces:  Max     0.000432612 RMS     0.000248220
 Search for a local minimum.
 Step number   4 out of a maximum of  100
 All quantities printed in internal units (Hartrees-Bohrs-Radians)
 Mixed Optimization -- En-DIIS/RFO-DIIS
 Update second derivatives using D2CorX and points    1    2    3    4
 DE= -8.84D-05 DEPred=-8.16D-05 R= 1.08D+00
 TightC=F SS=  1.41D+00  RLast= 3.47D-02 DXNew= 8.0847D-01 1.0423D-01
 Trust test= 1.08D+00 RLast= 3.47D-02 DXMaxT set to 4.81D-01
 The second derivative matrix:
                          R1        R2        R3        A1        A2
           R1           0.92918
           R2           0.09265   0.22023
           R3           0.01126   0.00829   0.34099
           A1          -0.00054   0.01228   0.00575   0.25227
           A2          -0.00325  -0.03403  -0.00420  -0.00402   0.15966
           A3          -0.04573   0.01948  -0.00725  -0.00992   0.01079
           D1           0.00000   0.00000   0.00000   0.00000   0.00000
                          A3        D1
           A3           0.15940
           D1           0.00000   0.00230
 ITU=  1  1  1  0
 Use linear search instead of GDIIS.
     Eigenvalues ---    0.00230   0.12621   0.22080   0.24164   0.34195
     Eigenvalues ---    0.94279
 RFO step:  Lambda=-1.40803308D-06 EMin= 2.30000000D-03
 Quartic linear search produced a step of  0.00776.
 Iteration  1 RMS(Cart)=  0.00108449 RMS(Int)=  0.00000047
 Iteration  2 RMS(Cart)=  0.00000038 RMS(Int)=  0.00000000
 ClnCor:  largest displacement from symmetrization is 3.08D-12 for atom     1.
 Variable       Old X    -DE/DX   Delta X   Delta X   Delta X     New X
                                 (Linear)    (Quad)   (Total)
    R1        2.19490  -0.00043  -0.00001  -0.00053  -0.00054   2.19436
    R2        3.33748   0.00033   0.00021   0.00119   0.00140   3.33888
    R3        2.06431  -0.00006  -0.00001  -0.00018  -0.00018   2.06412
    A1        2.15001   0.00001  -0.00001   0.00003   0.00002   2.15003
    A2        2.21212  -0.00026   0.00013  -0.00153  -0.00140   2.21072
    A3        1.92105   0.00025  -0.00012   0.00150   0.00138   1.92243
    D1        3.14159   0.00000   0.00000   0.00000   0.00000   3.14159
         Item               Value     Threshold  Converged?
 Maximum Force            0.000433     0.000450     YES
 RMS     Force            0.000248     0.000300     YES
 Maximum Displacement     0.001747     0.001800     YES
 RMS     Displacement     0.001084     0.001200     YES
 Predicted change in Energy=-7.095774D-07
 Optimization completed.
    -- Stationary point found.
                           ----------------------------
                           !   Optimized Parameters   !
                           ! (Angstroms and Degrees)  !
 --------------------------                            --------------------------
 ! Name  Definition              Value          Derivative Info.                !
 --------------------------------------------------------------------------------
 ! R1    R(1,2)                  1.1615         -DE/DX =   -0.0004              !
 ! R2    R(1,3)                  1.7661         -DE/DX =    0.0003              !
 ! R3    R(1,4)                  1.0924         -DE/DX =   -0.0001              !
 ! A1    A(2,1,3)              123.1867         -DE/DX =    0.0                 !
 ! A2    A(2,1,4)              126.7454         -DE/DX =   -0.0003              !
 ! A3    A(3,1,4)              110.0679         -DE/DX =    0.0003              !
 ! D1    D(2,1,4,3)            180.0            -DE/DX =    0.0                 !
 --------------------------------------------------------------------------------
 GradGradGradGradGradGradGradGradGradGradGradGradGradGradGradGradGradGrad

                          Input orientation:                          
 ---------------------------------------------------------------------
 Center     Atomic      Atomic             Coordinates (Angstroms)
 Number     Number       Type             X           Y           Z
 ---------------------------------------------------------------------
      1          6           0       -0.037878    0.000000    0.030813
      2          8           0        0.036356    0.000000    1.189928
      3         17           0        1.375363    0.000000   -1.028395
      4          1           0       -0.953187    0.000000   -0.565435
 ---------------------------------------------------------------------
                    Distance matrix (angstroms):
                    1          2          3          4
     1  C    0.000000
     2  O    1.161489   0.000000
     3  Cl   1.766118   2.591118   0.000000
     4  H    1.092383   2.015067   2.374126   0.000000
 Stoichiometry    CHClO
 Framework group  CS[SG(CHClO)]
 Deg. of freedom     5
 Full point group                 CS      NOp   2
 Largest Abelian subgroup         CS      NOp   2
 Largest concise Abelian subgroup C1      NOp   1
                         Standard orientation:                         
 ---------------------------------------------------------------------
 Center     Atomic      Atomic             Coordinates (Angstroms)
 Number     Number       Type             X           Y           Z
 ---------------------------------------------------------------------
      1          6           0        0.000000    0.796054    0.000000
      2          8           0        1.105762    1.151509    0.000000
      3         17           0       -0.468002   -0.906928    0.000000
      4          1           0       -0.890053    1.429383    0.000000
 ---------------------------------------------------------------------
 Rotational constants (GHZ):     79.5177241      6.2232479      5.7715524

 **********************************************************************

            Population analysis using the SCF density.

 **********************************************************************

 Orbital symmetries:
       Occupied  (A') (A') (A') (A') (A') (A") (A') (A') (A') (A')
                 (A') (A') (A") (A') (A") (A')
       Virtual   (A") (A') (A') (A') (A') (A") (A') (A') (A') (A")
                 (A') (A") (A') (A") (A') (A') (A') (A') (A") (A")
                 (A') (A') (A") (A') (A') (A') (A") (A') (A') (A')
                 (A") (A') (A") (A') (A')
 The electronic state is 1-A'.
 Alpha  occ. eigenvalues -- -104.84960 -20.61390 -11.41894 -10.57809  -8.04541
 Alpha  occ. eigenvalues --   -8.04215  -8.04189  -1.47778  -1.14394  -0.85605
 Alpha  occ. eigenvalues --   -0.72051  -0.67488  -0.61044  -0.47797  -0.47408
 Alpha  occ. eigenvalues --   -0.46649
 Alpha virt. eigenvalues --    0.12419   0.16321   0.25582   0.36339   0.62226
 Alpha virt. eigenvalues --    0.64248   0.67662   0.71359   0.75629   0.75944
 Alpha virt. eigenvalues --    0.84960   0.90042   0.91647   0.95730   0.97005
 Alpha virt. eigenvalues --    0.99589   1.06729   1.23257   1.24847   1.31745
 Alpha virt. eigenvalues --    1.32421   1.35347   1.57958   1.76954   1.79763
 Alpha virt. eigenvalues --    1.94203   1.95445   2.05975   2.60606   2.64145
 Alpha virt. eigenvalues --    3.00026   3.06475   3.43172   3.65871   3.86273
          Condensed to atoms (all electrons):
               1          2          3          4
     1  C    4.328277   0.720398   0.273289   0.406393
     2  O    0.720398   7.597418  -0.069460  -0.032635
     3  Cl   0.273289  -0.069460  17.019487  -0.075666
     4  H    0.406393  -0.032635  -0.075666   0.610181
 Mulliken charges:
               1
     1  C    0.271643
     2  O   -0.215721
     3  Cl  -0.147650
     4  H    0.091728
 Sum of Mulliken charges =   0.00000
 Mulliken charges with hydrogens summed into heavy atoms:
               1
     1  C    0.363371
     2  O   -0.215721
     3  Cl  -0.147650
 Electronic spatial extent (au):  <R**2>=            213.3986
 Charge=              0.0000 electrons
 Dipole moment (field-independent basis, Debye):
    X=             -1.9236    Y=              0.9130    Z=              0.0000  Tot=              2.1293
 Quadrupole moment (field-independent basis, Debye-Ang):
   XX=            -25.5106   YY=            -23.4196   ZZ=            -23.2353
   XY=             -3.0380   XZ=              0.0000   YZ=              0.0000
 Traceless Quadrupole moment (field-independent basis, Debye-Ang):
   XX=             -1.4555   YY=              0.6356   ZZ=              0.8199
   XY=             -3.0380   XZ=              0.0000   YZ=              0.0000
 Octapole moment (field-independent basis, Debye-Ang**2):
  XXX=             -0.4056  YYY=             -0.8632  ZZZ=              0.0000  XYY=             -4.1192
  XXY=             -0.8118  XXZ=              0.0000  XZZ=              1.0371  YZZ=              1.3123
  YYZ=              0.0000  XYZ=              0.0000
 Hexadecapole moment (field-independent basis, Debye-Ang**3):
 XXXX=            -83.9018 YYYY=           -148.5616 ZZZZ=            -22.4291 XXXY=            -37.3915
 XXXZ=              0.0000 YYYX=            -36.6989 YYYZ=              0.0000 ZZZX=              0.0000
 ZZZY=              0.0000 XXYY=            -40.1103 XXZZ=            -17.2229 YYZZ=            -29.2057
 XXYZ=              0.0000 YYXZ=              0.0000 ZZXY=            -11.1075
 N-N= 8.900243334138D+01 E-N=-1.539512220979D+03  KE= 5.728620060210D+02
 Symmetry A'   KE= 5.235397467550D+02
 Symmetry A"   KE= 4.932225926603D+01
 B after Tr=    -0.003710    0.000000   -0.014981
         Rot=    1.000000    0.000000    0.000325    0.000000 Ang=   0.04 deg.
 Final structure in terms of initial Z-matrix:
 C
 O,1,B1
 Cl,1,B2,2,A2
 H,1,B3,2,A3,3,D3,0
      Variables:
 B1=1.16148935
 B2=1.76611789
 A2=123.18669005
 B3=1.09238338
 A3=126.74536798
 D3=180.
 1\1\GINC-C0700A-S4\FOpt\RHF\CC-pVDZ\C1H1Cl1O1\LE.CHEN\19-Sep-2021\0\\#
 n HF/cc-pvdz Opt=(MaxCyc=500)\\Title\\0,1\C,-0.0377087004,0.,0.0312706
 588\O,0.0365258241,0.,1.1903852955\Cl,1.3755323494,0.,-1.0279375965\H,
 -0.9530173906,0.,-0.5649771562\\Version=AS64L-G09RevD.01\State=1-A'\HF
 =-572.8147848\RMSD=3.134e-09\RMSF=2.021e-04\Dipole=-0.6114378,0.,-0.57
 26506\Quadrupole=1.8035361,0.60957,-2.4131061,0.,1.1228746,0.\PG=CS [S
 G(C1H1Cl1O1)]\\@


 MOST BUREAUCRACIES FUNCTION LIKE A SEPTIC TANK.
 THE LARGE CHUNKS RISE TO THE TOP.
 Job cpu time:       0 days  0 hours  0 minutes  4.2 seconds.
 File lengths (MBytes):  RWF=      5 Int=      0 D2E=      0 Chk=      1 Scr=      1
 Normal termination of Gaussian 09 at Sun Sep 19 22:04:15 2021.
