 Entering Gaussian System, Link 0=g09
 Initial command:
 /apps/gaussian/g09/amd-sse4a/l1.exe "/blue/chm6586/le.chen/hw3/clcho/Gau-116904.inp" -scrdir="/blue/chm6586/le.chen/hw3/clcho/"
 Entering Link 1 = /apps/gaussian/g09/amd-sse4a/l1.exe PID=    116905.
  
 Copyright (c) 1988,1990,1992,1993,1995,1998,2003,2009,2013,
            Gaussian, Inc.  All Rights Reserved.
  
 This is part of the Gaussian(R) 09 program.  It is based on
 the Gaussian(R) 03 system (copyright 2003, Gaussian, Inc.),
 the Gaussian(R) 98 system (copyright 1998, Gaussian, Inc.),
 the Gaussian(R) 94 system (copyright 1995, Gaussian, Inc.),
 the Gaussian 92(TM) system (copyright 1992, Gaussian, Inc.),
 the Gaussian 90(TM) system (copyright 1990, Gaussian, Inc.),
 the Gaussian 88(TM) system (copyright 1988, Gaussian, Inc.),
 the Gaussian 86(TM) system (copyright 1986, Carnegie Mellon
 University), and the Gaussian 82(TM) system (copyright 1983,
 Carnegie Mellon University). Gaussian is a federally registered
 trademark of Gaussian, Inc.
  
 This software contains proprietary and confidential information,
 including trade secrets, belonging to Gaussian, Inc.
  
 This software is provided under written license and may be
 used, copied, transmitted, or stored only in accord with that
 written license.
  
 The following legend is applicable only to US Government
 contracts under FAR:
  
                    RESTRICTED RIGHTS LEGEND
  
 Use, reproduction and disclosure by the US Government is
 subject to restrictions as set forth in subparagraphs (a)
 and (c) of the Commercial Computer Software - Restricted
 Rights clause in FAR 52.227-19.
  
 Gaussian, Inc.
 340 Quinnipiac St., Bldg. 40, Wallingford CT 06492
  
  
 ---------------------------------------------------------------
 Warning -- This program may not be used in any manner that
 competes with the business of Gaussian, Inc. or will provide
 assistance to any competitor of Gaussian, Inc.  The licensee
 of this program is prohibited from giving any competitor of
 Gaussian, Inc. access to this program.  By using this program,
 the user acknowledges that Gaussian, Inc. is engaged in the
 business of creating and licensing software in the field of
 computational chemistry and represents and warrants to the
 licensee that it is not a competitor of Gaussian, Inc. and that
 it will not use this program in any manner prohibited above.
 ---------------------------------------------------------------
  

 Cite this work as:
 Gaussian 09, Revision D.01,
 M. J. Frisch, G. W. Trucks, H. B. Schlegel, G. E. Scuseria, 
 M. A. Robb, J. R. Cheeseman, G. Scalmani, V. Barone, B. Mennucci, 
 G. A. Petersson, H. Nakatsuji, M. Caricato, X. Li, H. P. Hratchian, 
 A. F. Izmaylov, J. Bloino, G. Zheng, J. L. Sonnenberg, M. Hada, 
 M. Ehara, K. Toyota, R. Fukuda, J. Hasegawa, M. Ishida, T. Nakajima, 
 Y. Honda, O. Kitao, H. Nakai, T. Vreven, J. A. Montgomery, Jr., 
 J. E. Peralta, F. Ogliaro, M. Bearpark, J. J. Heyd, E. Brothers, 
 K. N. Kudin, V. N. Staroverov, T. Keith, R. Kobayashi, J. Normand, 
 K. Raghavachari, A. Rendell, J. C. Burant, S. S. Iyengar, J. Tomasi, 
 M. Cossi, N. Rega, J. M. Millam, M. Klene, J. E. Knox, J. B. Cross, 
 V. Bakken, C. Adamo, J. Jaramillo, R. Gomperts, R. E. Stratmann, 
 O. Yazyev, A. J. Austin, R. Cammi, C. Pomelli, J. W. Ochterski, 
 R. L. Martin, K. Morokuma, V. G. Zakrzewski, G. A. Voth, 
 P. Salvador, J. J. Dannenberg, S. Dapprich, A. D. Daniels, 
 O. Farkas, J. B. Foresman, J. V. Ortiz, J. Cioslowski, 
 and D. J. Fox, Gaussian, Inc., Wallingford CT, 2013.
 
 ******************************************
 Gaussian 09:  AS64L-G09RevD.01 24-Apr-2013
                 6-Oct-2021 
 ******************************************
 --------------------------------------------------
 # freq hf/cc-pvdz geom=connectivity opt=maxcyc=500
 --------------------------------------------------
 1/6=500,18=20,19=15,38=1,57=2/1,3;
 2/9=110,12=2,17=6,18=5,40=1/2;
 3/5=16,11=9,16=1,25=1,30=1,71=1/1,2,3;
 4//1;
 5/5=2,38=5/2;
 6/7=2,8=2,9=2,10=2,28=1/1;
 7//1,2,3,16;
 1/6=500,18=20,19=15/3(2);
 2/9=110/2;
 99//99;
 2/9=110/2;
 3/5=16,11=9,16=1,25=1,30=1,71=1/1,2,3;
 4/5=5,16=3,69=1/1;
 5/5=2,38=5/2;
 7//1,2,3,16;
 1/6=500,18=20,19=15/3(-5);
 2/9=110/2;
 6/7=2,8=2,9=2,10=2,19=2,28=1/1;
 99/9=1/99;
 -----
 Title
 -----
 Symbolic Z-matrix:
 Charge =  0 Multiplicity = 1
 C                     0.        0.79605   0. 
 O                     1.10576   1.15151   0. 
 Cl                   -0.468    -0.90693   0. 
 H                    -0.89005   1.42938   0. 
 

 GradGradGradGradGradGradGradGradGradGradGradGradGradGradGradGradGradGrad
 Berny optimization.
 Initialization pass.
                           ----------------------------
                           !    Initial Parameters    !
                           ! (Angstroms and Degrees)  !
 --------------------------                            --------------------------
 ! Name  Definition              Value          Derivative Info.                !
 --------------------------------------------------------------------------------
 ! R1    R(1,2)                  1.1615         estimate D2E/DX2                !
 ! R2    R(1,3)                  1.7661         estimate D2E/DX2                !
 ! R3    R(1,4)                  1.0924         estimate D2E/DX2                !
 ! A1    A(2,1,3)              123.1867         estimate D2E/DX2                !
 ! A2    A(2,1,4)              126.7454         estimate D2E/DX2                !
 ! A3    A(3,1,4)              110.068          estimate D2E/DX2                !
 ! D1    D(2,1,4,3)            180.0            estimate D2E/DX2                !
 --------------------------------------------------------------------------------
 Trust Radius=3.00D-01 FncErr=1.00D-07 GrdErr=1.00D-07
 Number of steps in this run=    100 maximum allowed number of steps=    100.
 GradGradGradGradGradGradGradGradGradGradGradGradGradGradGradGradGradGrad

                          Input orientation:                          
 ---------------------------------------------------------------------
 Center     Atomic      Atomic             Coordinates (Angstroms)
 Number     Number       Type             X           Y           Z
 ---------------------------------------------------------------------
      1          6           0        0.000000    0.796054    0.000000
      2          8           0        1.105762    1.151509    0.000000
      3         17           0       -0.468002   -0.906928    0.000000
      4          1           0       -0.890053    1.429383    0.000000
 ---------------------------------------------------------------------
                    Distance matrix (angstroms):
                    1          2          3          4
     1  C    0.000000
     2  O    1.161489   0.000000
     3  Cl   1.766118   2.591119   0.000000
     4  H    1.092383   2.015066   2.374126   0.000000
 Stoichiometry    CHClO
 Framework group  CS[SG(CHClO)]
 Deg. of freedom     5
 Full point group                 CS      NOp   2
 Largest Abelian subgroup         CS      NOp   2
 Largest concise Abelian subgroup C1      NOp   1
                         Standard orientation:                         
 ---------------------------------------------------------------------
 Center     Atomic      Atomic             Coordinates (Angstroms)
 Number     Number       Type             X           Y           Z
 ---------------------------------------------------------------------
      1          6           0        0.000000    0.796054    0.000000
      2          8           0        1.105762    1.151509    0.000000
      3         17           0       -0.468003   -0.906928    0.000000
      4          1           0       -0.890053    1.429383    0.000000
 ---------------------------------------------------------------------
 Rotational constants (GHZ):     79.5176994      6.2232467      5.7715512
 Standard basis: CC-pVDZ (5D, 7F)
 There are    40 symmetry adapted cartesian basis functions of A'  symmetry.
 There are    14 symmetry adapted cartesian basis functions of A"  symmetry.
 There are    37 symmetry adapted basis functions of A'  symmetry.
 There are    14 symmetry adapted basis functions of A"  symmetry.
    51 basis functions,   144 primitive gaussians,    54 cartesian basis functions
    16 alpha electrons       16 beta electrons
       nuclear repulsion energy        89.0024247902 Hartrees.
 NAtoms=    4 NActive=    4 NUniq=    4 SFac= 1.00D+00 NAtFMM=   60 NAOKFM=F Big=F
 Integral buffers will be    131072 words long.
 Raffenetti 1 integral format.
 Two-electron integral symmetry is turned on.
 One-electron integrals computed using PRISM.
 NBasis=    51 RedAO= T EigKep=  2.00D-02  NBF=    37    14
 NBsUse=    51 1.00D-06 EigRej= -1.00D+00 NBFU=    37    14
 ExpMin= 1.22D-01 ExpMax= 1.28D+05 ExpMxC= 1.24D+03 IAcc=2 IRadAn=         4 AccDes= 0.00D+00
 Harris functional with IExCor=  205 and IRadAn=       4 diagonalized for initial guess.
 HarFok:  IExCor=  205 AccDes= 0.00D+00 IRadAn=         4 IDoV= 1 UseB2=F ITyADJ=14
 ICtDFT=  3500011 ScaDFX=  1.000000  1.000000  1.000000  1.000000
 FoFCou: FMM=F IPFlag=           0 FMFlag=      100000 FMFlg1=           0
         NFxFlg=           0 DoJE=T BraDBF=F KetDBF=T FulRan=T
         wScrn=  0.000000 ICntrl=     500 IOpCl=  0 I1Cent=   200000004 NGrid=           0
         NMat0=    1 NMatS0=      1 NMatT0=    0 NMatD0=    1 NMtDS0=    0 NMtDT0=    0
 Petite list used in FoFCou.
 Initial guess orbital symmetries:
       Occupied  (A') (A') (A') (A') (A') (A') (A") (A') (A') (A')
                 (A') (A') (A") (A') (A") (A')
       Virtual   (A") (A') (A') (A') (A') (A") (A') (A') (A') (A")
                 (A') (A') (A") (A") (A') (A') (A') (A") (A') (A')
                 (A") (A') (A") (A') (A') (A') (A") (A') (A') (A')
                 (A") (A') (A") (A') (A')
 The electronic state of the initial guess is 1-A'.
 Keep R1 ints in memory in symmetry-blocked form, NReq=1779339.
 Requested convergence on RMS density matrix=1.00D-08 within 128 cycles.
 Requested convergence on MAX density matrix=1.00D-06.
 Requested convergence on             energy=1.00D-06.
 No special actions if energy rises.
 SCF Done:  E(RHF) =  -572.814784799     A.U. after   13 cycles
            NFock= 13  Conv=0.29D-08     -V/T= 1.9999

 **********************************************************************

            Population analysis using the SCF density.

 **********************************************************************

 Orbital symmetries:
       Occupied  (A') (A') (A') (A') (A') (A") (A') (A') (A') (A')
                 (A') (A') (A") (A') (A") (A')
       Virtual   (A") (A') (A') (A') (A') (A") (A') (A') (A') (A")
                 (A') (A") (A') (A") (A') (A') (A') (A') (A") (A")
                 (A') (A') (A") (A') (A') (A') (A") (A') (A') (A')
                 (A") (A') (A") (A') (A')
 The electronic state is 1-A'.
 Alpha  occ. eigenvalues -- -104.84960 -20.61390 -11.41894 -10.57809  -8.04541
 Alpha  occ. eigenvalues --   -8.04215  -8.04189  -1.47778  -1.14394  -0.85605
 Alpha  occ. eigenvalues --   -0.72051  -0.67488  -0.61044  -0.47797  -0.47408
 Alpha  occ. eigenvalues --   -0.46649
 Alpha virt. eigenvalues --    0.12419   0.16321   0.25582   0.36339   0.62226
 Alpha virt. eigenvalues --    0.64248   0.67662   0.71359   0.75629   0.75944
 Alpha virt. eigenvalues --    0.84960   0.90042   0.91647   0.95730   0.97005
 Alpha virt. eigenvalues --    0.99589   1.06729   1.23257   1.24847   1.31745
 Alpha virt. eigenvalues --    1.32421   1.35347   1.57958   1.76954   1.79763
 Alpha virt. eigenvalues --    1.94203   1.95445   2.05975   2.60606   2.64145
 Alpha virt. eigenvalues --    3.00026   3.06475   3.43172   3.65871   3.86273
          Condensed to atoms (all electrons):
               1          2          3          4
     1  C    4.328277   0.720398   0.273289   0.406393
     2  O    0.720398   7.597418  -0.069460  -0.032635
     3  Cl   0.273289  -0.069460  17.019487  -0.075666
     4  H    0.406393  -0.032635  -0.075666   0.610181
 Mulliken charges:
               1
     1  C    0.271643
     2  O   -0.215721
     3  Cl  -0.147650
     4  H    0.091728
 Sum of Mulliken charges =   0.00000
 Mulliken charges with hydrogens summed into heavy atoms:
               1
     1  C    0.363371
     2  O   -0.215721
     3  Cl  -0.147650
 Electronic spatial extent (au):  <R**2>=            213.3986
 Charge=              0.0000 electrons
 Dipole moment (field-independent basis, Debye):
    X=             -1.9236    Y=              0.9130    Z=              0.0000  Tot=              2.1293
 Quadrupole moment (field-independent basis, Debye-Ang):
   XX=            -25.5106   YY=            -23.4196   ZZ=            -23.2353
   XY=             -3.0380   XZ=              0.0000   YZ=              0.0000
 Traceless Quadrupole moment (field-independent basis, Debye-Ang):
   XX=             -1.4555   YY=              0.6356   ZZ=              0.8199
   XY=             -3.0380   XZ=              0.0000   YZ=              0.0000
 Octapole moment (field-independent basis, Debye-Ang**2):
  XXX=             -0.4056  YYY=             -0.8632  ZZZ=              0.0000  XYY=             -4.1192
  XXY=             -0.8118  XXZ=              0.0000  XZZ=              1.0371  YZZ=              1.3123
  YYZ=              0.0000  XYZ=              0.0000
 Hexadecapole moment (field-independent basis, Debye-Ang**3):
 XXXX=            -83.9018 YYYY=           -148.5616 ZZZZ=            -22.4291 XXXY=            -37.3916
 XXXZ=              0.0000 YYYX=            -36.6990 YYYZ=              0.0000 ZZZX=              0.0000
 ZZZY=              0.0000 XXYY=            -40.1103 XXZZ=            -17.2229 YYZZ=            -29.2057
 XXYZ=              0.0000 YYXZ=              0.0000 ZZXY=            -11.1075
 N-N= 8.900242479024D+01 E-N=-1.539512203848D+03  KE= 5.728620056499D+02
 Symmetry A'   KE= 5.235397465929D+02
 Symmetry A"   KE= 4.932225905698D+01
 Calling FoFJK, ICntrl=      2127 FMM=F ISym2X=1 I1Cent= 0 IOpClX= 0 NMat=1 NMatS=1 NMatT=0.
 ***** Axes restored to original set *****
 -------------------------------------------------------------------
 Center     Atomic                   Forces (Hartrees/Bohr)
 Number     Number              X              Y              Z
 -------------------------------------------------------------------
      1        6           0.000272229    0.000186397    0.000000000
      2        8          -0.000449405   -0.000016729    0.000000000
      3       17          -0.000016138   -0.000337256    0.000000000
      4        1           0.000193314    0.000167588    0.000000000
 -------------------------------------------------------------------
 Cartesian Forces:  Max     0.000449405 RMS     0.000202187

 GradGradGradGradGradGradGradGradGradGradGradGradGradGradGradGradGradGrad
 Berny optimization.
 FormGI is forming the generalized inverse of G from B-inverse, IUseBI=4.
 Internal  Forces:  Max     0.000432963 RMS     0.000248260
 Search for a local minimum.
 Step number   1 out of a maximum of  100
 All quantities printed in internal units (Hartrees-Bohrs-Radians)
 Mixed Optimization -- En-DIIS/RFO-DIIS
 Second derivative matrix not updated -- first step.
 The second derivative matrix:
                          R1        R2        R3        A1        A2
           R1           1.26824
           R2           0.00000   0.28978
           R3           0.00000   0.00000   0.34539
           A1           0.00000   0.00000   0.00000   0.25000
           A2           0.00000   0.00000   0.00000   0.00000   0.16000
           A3           0.00000   0.00000   0.00000   0.00000   0.00000
           D1           0.00000   0.00000   0.00000   0.00000   0.00000
                          A3        D1
           A3           0.16000
           D1           0.00000   0.00230
 ITU=  0
     Eigenvalues ---    0.00230   0.16000   0.22000   0.28978   0.34539
     Eigenvalues ---    1.26824
 RFO step:  Lambda=-1.35645053D-06 EMin= 2.30000000D-03
 Linear search not attempted -- first point.
 Iteration  1 RMS(Cart)=  0.00111889 RMS(Int)=  0.00000061
 Iteration  2 RMS(Cart)=  0.00000051 RMS(Int)=  0.00000000
 ClnCor:  largest displacement from symmetrization is 4.44D-16 for atom     1.
 Variable       Old X    -DE/DX   Delta X   Delta X   Delta X     New X
                                 (Linear)    (Quad)   (Total)
    R1        2.19490  -0.00043   0.00000  -0.00034  -0.00034   2.19456
    R2        3.33748   0.00033   0.00000   0.00114   0.00114   3.33862
    R3        2.06430  -0.00006   0.00000  -0.00017  -0.00017   2.06413
    A1        2.15001   0.00001   0.00000   0.00003   0.00003   2.15004
    A2        2.21212  -0.00026   0.00000  -0.00162  -0.00162   2.21050
    A3        1.92105   0.00025   0.00000   0.00159   0.00159   1.92264
    D1        3.14159   0.00000   0.00000   0.00000   0.00000   3.14159
         Item               Value     Threshold  Converged?
 Maximum Force            0.000433     0.000450     YES
 RMS     Force            0.000248     0.000300     YES
 Maximum Displacement     0.001723     0.001800     YES
 RMS     Displacement     0.001119     0.001200     YES
 Predicted change in Energy=-6.782253D-07
 Optimization completed.
    -- Stationary point found.
                           ----------------------------
                           !   Optimized Parameters   !
                           ! (Angstroms and Degrees)  !
 --------------------------                            --------------------------
 ! Name  Definition              Value          Derivative Info.                !
 --------------------------------------------------------------------------------
 ! R1    R(1,2)                  1.1615         -DE/DX =   -0.0004              !
 ! R2    R(1,3)                  1.7661         -DE/DX =    0.0003              !
 ! R3    R(1,4)                  1.0924         -DE/DX =   -0.0001              !
 ! A1    A(2,1,3)              123.1867         -DE/DX =    0.0                 !
 ! A2    A(2,1,4)              126.7454         -DE/DX =   -0.0003              !
 ! A3    A(3,1,4)              110.068          -DE/DX =    0.0003              !
 ! D1    D(2,1,4,3)            180.0            -DE/DX =    0.0                 !
 --------------------------------------------------------------------------------
 GradGradGradGradGradGradGradGradGradGradGradGradGradGradGradGradGradGrad

                          Input orientation:                          
 ---------------------------------------------------------------------
 Center     Atomic      Atomic             Coordinates (Angstroms)
 Number     Number       Type             X           Y           Z
 ---------------------------------------------------------------------
      1          6           0        0.000000    0.796054    0.000000
      2          8           0        1.105762    1.151509    0.000000
      3         17           0       -0.468002   -0.906928    0.000000
      4          1           0       -0.890053    1.429383    0.000000
 ---------------------------------------------------------------------
                    Distance matrix (angstroms):
                    1          2          3          4
     1  C    0.000000
     2  O    1.161489   0.000000
     3  Cl   1.766118   2.591119   0.000000
     4  H    1.092383   2.015066   2.374126   0.000000
 Stoichiometry    CHClO
 Framework group  CS[SG(CHClO)]
 Deg. of freedom     5
 Full point group                 CS      NOp   2
 Largest Abelian subgroup         CS      NOp   2
 Largest concise Abelian subgroup C1      NOp   1
                         Standard orientation:                         
 ---------------------------------------------------------------------
 Center     Atomic      Atomic             Coordinates (Angstroms)
 Number     Number       Type             X           Y           Z
 ---------------------------------------------------------------------
      1          6           0        0.000000    0.796054    0.000000
      2          8           0        1.105762    1.151509    0.000000
      3         17           0       -0.468003   -0.906928    0.000000
      4          1           0       -0.890053    1.429383    0.000000
 ---------------------------------------------------------------------
 Rotational constants (GHZ):     79.5176994      6.2232467      5.7715512
 1\1\GINC-C0700A-S2\FOpt\RHF\CC-pVDZ\C1H1Cl1O1\LE.CHEN\06-Oct-2021\0\\#
  freq hf/cc-pvdz geom=connectivity opt=maxcyc=500\\Title\\0,1\C,0.,0.7
 96054,0.\O,1.105762,1.151509,0.\Cl,-0.468002,-0.906928,0.\H,-0.890053,
 1.429383,0.\\Version=AS64L-G09RevD.01\State=1-A'\HF=-572.8147848\RMSD=
 2.947e-09\RMSF=2.022e-04\Dipole=-0.7568021,0.3592165,0.\Quadrupole=-1.
 0821113,0.4725417,0.6095697,-2.2586803,0.,0.\PG=CS [SG(C1H1Cl1O1)]\\@


 I LOVE MANKIND - IT'S PEOPLE I CAN'T STAND.
     -- LINUS OF PEANUTS
 Job cpu time:       0 days  0 hours  0 minutes  1.3 seconds.
 File lengths (MBytes):  RWF=      5 Int=      0 D2E=      0 Chk=      1 Scr=      1
 Normal termination of Gaussian 09 at Wed Oct  6 22:18:47 2021.
 Link1:  Proceeding to internal job step number  2.
 ----------------------------------------------------------------
 #N Geom=AllCheck Guess=TCheck SCRF=Check GenChk RHF/CC-pVDZ Freq
 ----------------------------------------------------------------
 1/6=500,10=4,29=7,30=1,38=1,40=1/1,3;
 2/12=2,40=1/2;
 3/5=16,11=1,14=-4,16=1,25=1,30=1,70=2,71=2,116=1,140=1/1,2,3;
 4/5=101/1;
 5/5=2,98=1/2;
 8/6=4,10=90,11=11/1;
 10/13=10,15=4/2;
 11/6=3,8=1,9=11,15=111,16=1/1,2,10;
 10/6=1/2;
 6/7=2,8=2,9=2,10=2,18=1,28=1/1;
 7/8=1,10=1,25=1/1,2,3,16;
 1/6=500,10=4,30=1/3;
 99//99;
 Structure from the checkpoint file:  "/blue/chm6586/le.chen/hw3/clcho/Gau-116905.chk"
 -----
 Title
 -----
 Charge =  0 Multiplicity = 1
 Redundant internal coordinates found in file.
 C,0,0.,0.796054,0.
 O,0,1.105762,1.151509,0.
 Cl,0,-0.468002,-0.906928,0.
 H,0,-0.890053,1.429383,0.
 Recover connectivity data from disk.

 GradGradGradGradGradGradGradGradGradGradGradGradGradGradGradGradGradGrad
 Berny optimization.
 Initialization pass.
                           ----------------------------
                           !    Initial Parameters    !
                           ! (Angstroms and Degrees)  !
 --------------------------                            --------------------------
 ! Name  Definition              Value          Derivative Info.                !
 --------------------------------------------------------------------------------
 ! R1    R(1,2)                  1.1615         calculate D2E/DX2 analytically  !
 ! R2    R(1,3)                  1.7661         calculate D2E/DX2 analytically  !
 ! R3    R(1,4)                  1.0924         calculate D2E/DX2 analytically  !
 ! A1    A(2,1,3)              123.1867         calculate D2E/DX2 analytically  !
 ! A2    A(2,1,4)              126.7454         calculate D2E/DX2 analytically  !
 ! A3    A(3,1,4)              110.068          calculate D2E/DX2 analytically  !
 ! D1    D(2,1,4,3)            180.0            calculate D2E/DX2 analytically  !
 --------------------------------------------------------------------------------
 Trust Radius=3.00D-01 FncErr=1.00D-07 GrdErr=1.00D-07
 Number of steps in this run=      2 maximum allowed number of steps=      2.
 GradGradGradGradGradGradGradGradGradGradGradGradGradGradGradGradGradGrad

                          Input orientation:                          
 ---------------------------------------------------------------------
 Center     Atomic      Atomic             Coordinates (Angstroms)
 Number     Number       Type             X           Y           Z
 ---------------------------------------------------------------------
      1          6           0        0.000000    0.796054    0.000000
      2          8           0        1.105762    1.151509    0.000000
      3         17           0       -0.468002   -0.906928    0.000000
      4          1           0       -0.890053    1.429383    0.000000
 ---------------------------------------------------------------------
                    Distance matrix (angstroms):
                    1          2          3          4
     1  C    0.000000
     2  O    1.161489   0.000000
     3  Cl   1.766118   2.591119   0.000000
     4  H    1.092383   2.015066   2.374126   0.000000
 Stoichiometry    CHClO
 Framework group  CS[SG(CHClO)]
 Deg. of freedom     5
 Full point group                 CS      NOp   2
 Largest Abelian subgroup         CS      NOp   2
 Largest concise Abelian subgroup C1      NOp   1
                         Standard orientation:                         
 ---------------------------------------------------------------------
 Center     Atomic      Atomic             Coordinates (Angstroms)
 Number     Number       Type             X           Y           Z
 ---------------------------------------------------------------------
      1          6           0        0.000000    0.796054    0.000000
      2          8           0        1.105762    1.151509    0.000000
      3         17           0       -0.468003   -0.906928    0.000000
      4          1           0       -0.890053    1.429383    0.000000
 ---------------------------------------------------------------------
 Rotational constants (GHZ):     79.5176994      6.2232467      5.7715512
 Standard basis: CC-pVDZ (5D, 7F)
 There are    40 symmetry adapted cartesian basis functions of A'  symmetry.
 There are    14 symmetry adapted cartesian basis functions of A"  symmetry.
 There are    37 symmetry adapted basis functions of A'  symmetry.
 There are    14 symmetry adapted basis functions of A"  symmetry.
    51 basis functions,   144 primitive gaussians,    54 cartesian basis functions
    16 alpha electrons       16 beta electrons
       nuclear repulsion energy        89.0024247902 Hartrees.
 NAtoms=    4 NActive=    4 NUniq=    4 SFac= 1.00D+00 NAtFMM=   60 NAOKFM=F Big=F
 Integral buffers will be    131072 words long.
 Raffenetti 1 integral format.
 Two-electron integral symmetry is turned on.
 One-electron integrals computed using PRISM.
 NBasis=    51 RedAO= T EigKep=  2.00D-02  NBF=    37    14
 NBsUse=    51 1.00D-06 EigRej= -1.00D+00 NBFU=    37    14
 Initial guess from the checkpoint file:  "/blue/chm6586/le.chen/hw3/clcho/Gau-116905.chk"
 B after Tr=     0.000000    0.000000    0.000000
         Rot=    1.000000    0.000000    0.000000    0.000000 Ang=   0.00 deg.
 Initial guess orbital symmetries:
       Occupied  (A') (A') (A') (A') (A') (A") (A') (A') (A') (A')
                 (A') (A') (A") (A') (A") (A')
       Virtual   (A") (A') (A') (A') (A') (A") (A') (A') (A') (A")
                 (A') (A") (A') (A") (A') (A') (A') (A') (A") (A")
                 (A') (A') (A") (A') (A') (A') (A") (A') (A') (A')
                 (A") (A') (A") (A') (A')
 Keep R1 ints in memory in symmetry-blocked form, NReq=1779339.
 Requested convergence on RMS density matrix=1.00D-08 within 128 cycles.
 Requested convergence on MAX density matrix=1.00D-06.
 Requested convergence on             energy=1.00D-06.
 No special actions if energy rises.
 SCF Done:  E(RHF) =  -572.814784799     A.U. after    1 cycles
            NFock=  1  Conv=0.37D-09     -V/T= 1.9999
 Range of M.O.s used for correlation:     1    51
 NBasis=    51 NAE=    16 NBE=    16 NFC=     0 NFV=     0
 NROrb=     51 NOA=    16 NOB=    16 NVA=    35 NVB=    35
          Differentiating once with respect to electric field.
                with respect to dipole field.
          Electric field/nuclear overlap derivatives assumed to be zero.
 Keep R1 ints in memory in symmetry-blocked form, NReq=1770895.
          There are     3 degrees of freedom in the 1st order CPHF.  IDoFFX=0 NUNeed=     3.
      3 vectors produced by pass  0 Test12= 1.87D-14 3.33D-08 XBig12= 7.36D+00 1.57D+00.
 AX will form     3 AO Fock derivatives at one time.
      3 vectors produced by pass  1 Test12= 1.87D-14 3.33D-08 XBig12= 5.84D-01 2.03D-01.
      3 vectors produced by pass  2 Test12= 1.87D-14 3.33D-08 XBig12= 1.01D-01 1.59D-01.
      3 vectors produced by pass  3 Test12= 1.87D-14 3.33D-08 XBig12= 7.32D-03 2.89D-02.
      3 vectors produced by pass  4 Test12= 1.87D-14 3.33D-08 XBig12= 2.95D-04 5.75D-03.
      3 vectors produced by pass  5 Test12= 1.87D-14 3.33D-08 XBig12= 7.21D-06 7.81D-04.
      3 vectors produced by pass  6 Test12= 1.87D-14 3.33D-08 XBig12= 5.50D-07 2.81D-04.
      3 vectors produced by pass  7 Test12= 1.87D-14 3.33D-08 XBig12= 1.68D-08 3.25D-05.
      3 vectors produced by pass  8 Test12= 1.87D-14 3.33D-08 XBig12= 3.56D-10 8.16D-06.
      3 vectors produced by pass  9 Test12= 1.87D-14 3.33D-08 XBig12= 8.78D-12 1.13D-06.
      1 vectors produced by pass 10 Test12= 1.87D-14 3.33D-08 XBig12= 1.20D-13 9.37D-08.
 InvSVY:  IOpt=1 It=  1 EMax= 3.39D-16
 Solved reduced A of dimension    31 with     3 vectors.
 End of Minotr F.D. properties file   721 does not exist.
 End of Minotr F.D. properties file   722 does not exist.
 End of Minotr F.D. properties file   788 does not exist.
 Symmetrizing basis deriv contribution to polar:
 IMax=3 JMax=2 DiffMx= 0.00D+00
 G2DrvN: will do     5 centers at a time, making    1 passes.
 PxScal for G2LodP:  IOpCl= 0 ISclPx=1 IMOff=     1 NMtTot=     4 NTT=    1326 ScalPx= 1.85D+00
 Calling FoFCou, ICntrl=  3107 FMM=F I1Cent=   0 AccDes= 0.00D+00.
 End of G2Drv F.D. properties file   721 does not exist.
 End of G2Drv F.D. properties file   722 does not exist.
 End of G2Drv F.D. properties file   788 does not exist.
          IDoAtm=1111
          Differentiating once with respect to electric field.
                with respect to dipole field.
          Differentiating once with respect to nuclear coordinates.
 Keep R1 ints in memory in symmetry-blocked form, NReq=1770987.
          There are    15 degrees of freedom in the 1st order CPHF.  IDoFFX=5 NUNeed=    15.
 Will reuse    3 saved solutions.
      9 vectors produced by pass  0 Test12= 3.73D-15 6.67D-09 XBig12= 1.01D-01 1.17D-01.
 AX will form     9 AO Fock derivatives at one time.
      9 vectors produced by pass  1 Test12= 3.73D-15 6.67D-09 XBig12= 1.25D-02 5.87D-02.
      9 vectors produced by pass  2 Test12= 3.73D-15 6.67D-09 XBig12= 1.23D-03 1.06D-02.
      9 vectors produced by pass  3 Test12= 3.73D-15 6.67D-09 XBig12= 4.42D-05 1.66D-03.
      9 vectors produced by pass  4 Test12= 3.73D-15 6.67D-09 XBig12= 6.04D-07 1.80D-04.
      9 vectors produced by pass  5 Test12= 3.73D-15 6.67D-09 XBig12= 5.39D-09 1.88D-05.
      9 vectors produced by pass  6 Test12= 3.73D-15 6.67D-09 XBig12= 3.57D-11 1.64D-06.
      4 vectors produced by pass  7 Test12= 3.73D-15 6.67D-09 XBig12= 2.92D-13 1.36D-07.
      1 vectors produced by pass  8 Test12= 3.73D-15 6.67D-09 XBig12= 2.03D-15 9.36D-09.
 InvSVY:  IOpt=1 It=  1 EMax= 6.66D-16
 Solved reduced A of dimension    68 with     9 vectors.
 Isotropic polarizability for W=    0.000000       20.72 Bohr**3.
 End of Minotr F.D. properties file   721 does not exist.
 End of Minotr F.D. properties file   722 does not exist.
 End of Minotr F.D. properties file   788 does not exist.

 **********************************************************************

            Population analysis using the SCF density.

 **********************************************************************

 Orbital symmetries:
       Occupied  (A') (A') (A') (A') (A') (A") (A') (A') (A') (A')
                 (A') (A') (A") (A') (A") (A')
       Virtual   (A") (A') (A') (A') (A') (A") (A') (A') (A') (A")
                 (A') (A") (A') (A") (A') (A') (A') (A') (A") (A")
                 (A') (A') (A") (A') (A') (A') (A") (A') (A') (A')
                 (A") (A') (A") (A') (A')
 The electronic state is 1-A'.
 Alpha  occ. eigenvalues -- -104.84960 -20.61390 -11.41894 -10.57809  -8.04541
 Alpha  occ. eigenvalues --   -8.04215  -8.04189  -1.47778  -1.14394  -0.85605
 Alpha  occ. eigenvalues --   -0.72051  -0.67488  -0.61044  -0.47797  -0.47408
 Alpha  occ. eigenvalues --   -0.46649
 Alpha virt. eigenvalues --    0.12419   0.16321   0.25582   0.36339   0.62226
 Alpha virt. eigenvalues --    0.64248   0.67662   0.71359   0.75629   0.75944
 Alpha virt. eigenvalues --    0.84960   0.90042   0.91647   0.95730   0.97005
 Alpha virt. eigenvalues --    0.99589   1.06729   1.23257   1.24847   1.31745
 Alpha virt. eigenvalues --    1.32421   1.35347   1.57958   1.76954   1.79763
 Alpha virt. eigenvalues --    1.94203   1.95445   2.05975   2.60606   2.64145
 Alpha virt. eigenvalues --    3.00026   3.06475   3.43172   3.65871   3.86273
          Condensed to atoms (all electrons):
               1          2          3          4
     1  C    4.328277   0.720398   0.273289   0.406393
     2  O    0.720398   7.597418  -0.069460  -0.032635
     3  Cl   0.273289  -0.069460  17.019487  -0.075666
     4  H    0.406393  -0.032635  -0.075666   0.610181
 Mulliken charges:
               1
     1  C    0.271643
     2  O   -0.215721
     3  Cl  -0.147650
     4  H    0.091728
 Sum of Mulliken charges =   0.00000
 Mulliken charges with hydrogens summed into heavy atoms:
               1
     1  C    0.363371
     2  O   -0.215721
     3  Cl  -0.147650
 APT charges:
               1
     1  C    1.286501
     2  O   -0.791678
     3  Cl  -0.482428
     4  H   -0.012395
 Sum of APT charges =   0.00000
 APT charges with hydrogens summed into heavy atoms:
               1
     1  C    1.274106
     2  O   -0.791678
     3  Cl  -0.482428
 Electronic spatial extent (au):  <R**2>=            213.3986
 Charge=              0.0000 electrons
 Dipole moment (field-independent basis, Debye):
    X=             -1.9236    Y=              0.9130    Z=              0.0000  Tot=              2.1293
 Quadrupole moment (field-independent basis, Debye-Ang):
   XX=            -25.5106   YY=            -23.4196   ZZ=            -23.2353
   XY=             -3.0380   XZ=              0.0000   YZ=              0.0000
 Traceless Quadrupole moment (field-independent basis, Debye-Ang):
   XX=             -1.4555   YY=              0.6356   ZZ=              0.8199
   XY=             -3.0380   XZ=              0.0000   YZ=              0.0000
 Octapole moment (field-independent basis, Debye-Ang**2):
  XXX=             -0.4056  YYY=             -0.8632  ZZZ=              0.0000  XYY=             -4.1192
  XXY=             -0.8118  XXZ=              0.0000  XZZ=              1.0371  YZZ=              1.3123
  YYZ=              0.0000  XYZ=              0.0000
 Hexadecapole moment (field-independent basis, Debye-Ang**3):
 XXXX=            -83.9018 YYYY=           -148.5616 ZZZZ=            -22.4291 XXXY=            -37.3916
 XXXZ=              0.0000 YYYX=            -36.6990 YYYZ=              0.0000 ZZZX=              0.0000
 ZZZY=              0.0000 XXYY=            -40.1103 XXZZ=            -17.2229 YYZZ=            -29.2057
 XXYZ=              0.0000 YYXZ=              0.0000 ZZXY=            -11.1075
 N-N= 8.900242479024D+01 E-N=-1.539512203904D+03  KE= 5.728620056665D+02
 Symmetry A'   KE= 5.235397466180D+02
 Symmetry A"   KE= 4.932225904855D+01
  Exact polarizability:  21.341   5.707  29.378   0.000   0.000  11.444
 Approx polarizability:  21.339   5.791  26.343   0.000   0.000  12.129
 Calling FoFJK, ICntrl=    100127 FMM=F ISym2X=1 I1Cent= 0 IOpClX= 0 NMat=1 NMatS=1 NMatT=0.
 Full mass-weighted force constant matrix:
 Low frequencies ---  -14.9184   -1.5316    0.0024    0.0045    0.0046   27.5634
 Low frequencies ---  500.7423  803.0286 1060.9869
 Diagonal vibrational polarizability:
        2.5831556      12.5741031       0.0003654
 Diagonal vibrational hyperpolarizability:
       -6.9346315      72.8142823       0.0000000
 Harmonic frequencies (cm**-1), IR intensities (KM/Mole), Raman scattering
 activities (A**4/AMU), depolarization ratios for plane and unpolarized
 incident light, reduced masses (AMU), force constants (mDyne/A),
 and normal coordinates:
                      1                      2                      3
                     A'                     A'                     A"
 Frequencies --    500.7422               803.0286              1060.9869
 Red. masses --     16.6250                 6.3593                 1.5957
 Frc consts  --      2.4561                 2.4161                 1.0584
 IR Inten    --      8.6923               246.0842                 0.0153
 Raman Activ --      8.0746                10.5646                 1.3414
 Depolar (P) --      0.4482                 0.3397                 0.7500
 Depolar (U) --      0.6190                 0.5072                 0.8571
  Atom  AN      X      Y      Z        X      Y      Z        X      Y      Z
     1   6     0.44   0.06   0.00    -0.13   0.60   0.00     0.00   0.00   0.22
     2   8     0.24   0.67   0.00     0.07  -0.14   0.00     0.00   0.00  -0.06
     3  17    -0.27  -0.32   0.00     0.01  -0.16   0.00     0.00   0.00  -0.02
     4   1     0.21  -0.28   0.00    -0.02   0.76   0.00     0.00   0.00  -0.97
                      4                      5                      6
                     A'                     A'                     A'
 Frequencies --   1443.1071              2035.8112              3269.1493
 Red. masses --      1.1138                 9.6739                 1.1026
 Frc consts  --      1.3666                23.6225                 6.9428
 IR Inten    --     59.3125               480.7928                26.3683
 Raman Activ --      2.9646                11.4819               120.6231
 Depolar (P) --      0.7415                 0.3960                 0.3056
 Depolar (U) --      0.8516                 0.5674                 0.4682
  Atom  AN      X      Y      Z        X      Y      Z        X      Y      Z
     1   6    -0.01  -0.08   0.00     0.62   0.20   0.00    -0.08   0.05   0.00
     2   8    -0.04   0.03   0.00    -0.49  -0.15   0.00     0.01   0.00   0.00
     3  17     0.00  -0.01   0.00     0.00   0.01   0.00     0.00   0.00   0.00
     4   1     0.60   0.79   0.00     0.44  -0.33   0.00     0.81  -0.57   0.00

 -------------------
 - Thermochemistry -
 -------------------
 Temperature   298.150 Kelvin.  Pressure   1.00000 Atm.
 Atom     1 has atomic number  6 and mass  12.00000
 Atom     2 has atomic number  8 and mass  15.99491
 Atom     3 has atomic number 17 and mass  34.96885
 Atom     4 has atomic number  1 and mass   1.00783
 Molecular mass:    63.97159 amu.
 Principal axes and moments of inertia in atomic units:
                           1         2         3
     Eigenvalues --    22.69609 289.99995 312.69604
           X            0.53788   0.84302   0.00000
           Y            0.84302  -0.53788   0.00000
           Z            0.00000   0.00000   1.00000
 This molecule is an asymmetric top.
 Rotational symmetry number  1.
 Rotational temperatures (Kelvin)      3.81624     0.29867     0.27699
 Rotational constants (GHZ):          79.51770     6.22325     5.77155
 Zero-point vibrational energy      54506.8 (Joules/Mol)
                                   13.02744 (Kcal/Mol)
 Warning -- explicit consideration of   1 degrees of freedom as
           vibrations may cause significant error
 Vibrational temperatures:    720.46  1155.38  1526.52  2076.31  2929.07
          (Kelvin)           4703.57
 
 Zero-point correction=                           0.020761 (Hartree/Particle)
 Thermal correction to Energy=                    0.023930
 Thermal correction to Enthalpy=                  0.024874
 Thermal correction to Gibbs Free Energy=        -0.004386
 Sum of electronic and zero-point Energies=           -572.794024
 Sum of electronic and thermal Energies=              -572.790855
 Sum of electronic and thermal Enthalpies=            -572.789911
 Sum of electronic and thermal Free Energies=         -572.819171
 
                     E (Thermal)             CV                S
                      KCal/Mol        Cal/Mol-Kelvin    Cal/Mol-Kelvin
 Total                   15.016              8.273             61.584
 Electronic               0.000              0.000              0.000
 Translational            0.889              2.981             38.386
 Rotational               0.889              2.981             22.247
 Vibrational             13.239              2.311              0.950
 Vibration     1          0.856              1.248              0.656
                       Q            Log10(Q)             Ln(Q)
 Total Bot       0.104134D+03          2.017592          4.645677
 Total V=0       0.368773D+12         11.566759         26.633446
 Vib (Bot)       0.318841D-09         -9.496426        -21.866329
 Vib (Bot)    1  0.328003D+00         -0.484122         -1.114733
 Vib (V=0)       0.112912D+01          0.052741          0.121440
 Vib (V=0)    1  0.109798D+01          0.040596          0.093477
 Electronic      0.100000D+01          0.000000          0.000000
 Translational   0.201111D+08          7.303436         16.816783
 Rotational      0.162399D+05          4.210582          9.695224
 ***** Axes restored to original set *****
 -------------------------------------------------------------------
 Center     Atomic                   Forces (Hartrees/Bohr)
 Number     Number              X              Y              Z
 -------------------------------------------------------------------
      1        6           0.000272228    0.000186399    0.000000000
      2        8          -0.000449403   -0.000016729    0.000000000
      3       17          -0.000016140   -0.000337257    0.000000000
      4        1           0.000193314    0.000167587    0.000000000
 -------------------------------------------------------------------
 Cartesian Forces:  Max     0.000449403 RMS     0.000202187
 FormGI is forming the generalized inverse of G from B-inverse, IUseBI=4.

 GradGradGradGradGradGradGradGradGradGradGradGradGradGradGradGradGradGrad
 Berny optimization.
 Internal  Forces:  Max     0.000432960 RMS     0.000248259
 Search for a local minimum.
 Step number   1 out of a maximum of    2
 All quantities printed in internal units (Hartrees-Bohrs-Radians)
 Second derivative matrix not updated -- analytic derivatives used.
 The second derivative matrix:
                          R1        R2        R3        A1        A2
           R1           1.15326
           R2           0.09100   0.21749
           R3           0.02371   0.00673   0.37540
           A1           0.01492   0.02130  -0.00675   0.16494
           A2           0.02501  -0.04166   0.00653  -0.08725   0.12336
           A3          -0.03993   0.02035   0.00021  -0.07769  -0.03612
           D1           0.00000   0.00000   0.00000   0.00000   0.00000
                          A3        D1
           A3           0.11381
           D1           0.00000   0.08867
 ITU=  0
     Eigenvalues ---    0.08867   0.12507   0.21531   0.26758   0.37536
     Eigenvalues ---    1.16493
 Angle between quadratic step and forces=  32.22 degrees.
 Linear search not attempted -- first point.
 Iteration  1 RMS(Cart)=  0.00102426 RMS(Int)=  0.00000043
 Iteration  2 RMS(Cart)=  0.00000035 RMS(Int)=  0.00000000
 ClnCor:  largest displacement from symmetrization is 4.44D-16 for atom     2.
 Variable       Old X    -DE/DX   Delta X   Delta X   Delta X     New X
                                 (Linear)    (Quad)   (Total)
    R1        2.19490  -0.00043   0.00000  -0.00040  -0.00040   2.19450
    R2        3.33748   0.00033   0.00000   0.00133   0.00133   3.33881
    R3        2.06430  -0.00006   0.00000  -0.00014  -0.00014   2.06416
    A1        2.15001   0.00001   0.00000  -0.00012  -0.00012   2.14990
    A2        2.21212  -0.00026   0.00000  -0.00125  -0.00125   2.21087
    A3        1.92105   0.00025   0.00000   0.00137   0.00137   1.92242
    D1        3.14159   0.00000   0.00000   0.00000   0.00000   3.14159
         Item               Value     Threshold  Converged?
 Maximum Force            0.000433     0.000450     YES
 RMS     Force            0.000248     0.000300     YES
 Maximum Displacement     0.001686     0.001800     YES
 RMS     Displacement     0.001024     0.001200     YES
 Predicted change in Energy=-6.460544D-07
 Optimization completed.
    -- Stationary point found.
                           ----------------------------
                           !   Optimized Parameters   !
                           ! (Angstroms and Degrees)  !
 --------------------------                            --------------------------
 ! Name  Definition              Value          Derivative Info.                !
 --------------------------------------------------------------------------------
 ! R1    R(1,2)                  1.1615         -DE/DX =   -0.0004              !
 ! R2    R(1,3)                  1.7661         -DE/DX =    0.0003              !
 ! R3    R(1,4)                  1.0924         -DE/DX =   -0.0001              !
 ! A1    A(2,1,3)              123.1867         -DE/DX =    0.0                 !
 ! A2    A(2,1,4)              126.7454         -DE/DX =   -0.0003              !
 ! A3    A(3,1,4)              110.068          -DE/DX =    0.0003              !
 ! D1    D(2,1,4,3)            180.0            -DE/DX =    0.0                 !
 --------------------------------------------------------------------------------
 GradGradGradGradGradGradGradGradGradGradGradGradGradGradGradGradGradGrad

 1\1\GINC-C0700A-S2\Freq\RHF\CC-pVDZ\C1H1Cl1O1\LE.CHEN\06-Oct-2021\0\\#
 N Geom=AllCheck Guess=TCheck SCRF=Check GenChk RHF/CC-pVDZ Freq\\Title
 \\0,1\C,0.,0.796054,0.\O,1.105762,1.151509,0.\Cl,-0.468002,-0.906928,0
 .\H,-0.890053,1.429383,0.\\Version=AS64L-G09RevD.01\State=1-A'\HF=-572
 .8147848\RMSD=3.682e-10\RMSF=2.022e-04\ZeroPoint=0.0207605\Thermal=0.0
 2393\Dipole=-0.7568021,0.3592165,0.\DipoleDeriv=1.4148445,0.8497311,0.
 ,0.5338507,2.0821641,0.,0.,0.,0.3624952,-1.1823299,-0.6988753,0.,-0.27
 37593,-0.8600021,0.,0.,0.,-0.3327016,-0.2427368,-0.1849091,0.,-0.28263
 46,-1.064489,0.,0.,0.,-0.140058,0.0102222,0.0340533,0.,0.0225432,-0.15
 7673,0.,0.,0.,0.1102644\Polar=21.3413537,5.7073383,29.3780455,0.,0.,11
 .44375\PolarDeriv=-2.7675671,-3.98437,7.9698809,0.,0.,-0.7897009,-3.56
 66637,1.6322072,5.4282534,0.,0.,-0.5050638,0.,0.,0.,-1.0017391,1.52198
 86,0.,10.2696388,4.9583508,-1.301894,0.,0.,1.2685932,1.6137459,4.17820
 41,3.4339212,0.,0.,0.3072064,0.,0.,0.,3.3717683,1.8267226,0.,-3.152295
 8,-5.0661944,-1.8146012,0.,0.,0.0321859,0.4199794,-2.5178955,-14.43152
 29,0.,0.,-0.2159897,0.,0.,0.,-1.4221947,-4.6919862,0.,-4.3497759,4.092
 2136,-4.8533857,0.,0.,-0.5110782,1.5329384,-3.2925159,5.5693484,0.,0.,
 0.4138471,0.,0.,0.,-0.9478344,1.343275,0.\HyperPolar=-33.5552601,17.98
 08178,-20.0485903,27.0095541,0.,0.,0.,-3.4656992,-0.0257446,0.\PG=CS [
 SG(C1H1Cl1O1)]\NImag=0\\1.26253054,0.06733284,0.46532622,0.,0.,0.18037
 299,-0.98915066,-0.21054195,0.,1.05691573,-0.26177778,-0.17283375,0.,0
 .30426467,0.19260873,0.,0.,-0.07199099,0.,0.,0.02882310,-0.03426070,0.
 00076224,0.,-0.02388259,-0.05627830,0.,0.05155209,0.04249385,-0.130992
 26,0.,-0.07417541,-0.04173561,0.,0.04586435,0.20481078,0.,0.,-0.040291
 04,0.,0.,0.01608346,0.,0.,0.00893281,-0.23911918,0.14244686,0.,-0.0438
 8248,0.01379141,0.,0.00659120,-0.01418279,0.,0.27641046,0.15195109,-0.
 16150022,0.,-0.01954732,0.02196062,0.,0.00965171,-0.03208292,0.,-0.142
 05548,0.17162251,0.,0.,-0.06809096,0.,0.,0.02708444,0.,0.,0.01527477,0
 .,0.,0.02573175\\-0.00027223,-0.00018640,0.,0.00044940,0.00001673,0.,0
 .00001614,0.00033726,0.,-0.00019331,-0.00016759,0.\\\@


 IF YOU GET CONFUSED, LOGIC OUT YOUR DILEMMA

           --  PICKER X-RAY CORP.    DIGITAL PRINTER MANUAL CA. 1964
 Job cpu time:       0 days  0 hours  0 minutes  3.2 seconds.
 File lengths (MBytes):  RWF=      5 Int=      0 D2E=      0 Chk=      1 Scr=      1
 Normal termination of Gaussian 09 at Wed Oct  6 22:18:51 2021.
