 Entering Gaussian System, Link 0=g09
 Initial command:
 /apps/gaussian/g09/amd-sse4a/l1.exe "/blue/chm6586/le.chen/hw3/clcho/Gau-2348.inp" -scrdir="/blue/chm6586/le.chen/hw3/clcho/"
 Entering Link 1 = /apps/gaussian/g09/amd-sse4a/l1.exe PID=      2350.
  
 Copyright (c) 1988,1990,1992,1993,1995,1998,2003,2009,2013,
            Gaussian, Inc.  All Rights Reserved.
  
 This is part of the Gaussian(R) 09 program.  It is based on
 the Gaussian(R) 03 system (copyright 2003, Gaussian, Inc.),
 the Gaussian(R) 98 system (copyright 1998, Gaussian, Inc.),
 the Gaussian(R) 94 system (copyright 1995, Gaussian, Inc.),
 the Gaussian 92(TM) system (copyright 1992, Gaussian, Inc.),
 the Gaussian 90(TM) system (copyright 1990, Gaussian, Inc.),
 the Gaussian 88(TM) system (copyright 1988, Gaussian, Inc.),
 the Gaussian 86(TM) system (copyright 1986, Carnegie Mellon
 University), and the Gaussian 82(TM) system (copyright 1983,
 Carnegie Mellon University). Gaussian is a federally registered
 trademark of Gaussian, Inc.
  
 This software contains proprietary and confidential information,
 including trade secrets, belonging to Gaussian, Inc.
  
 This software is provided under written license and may be
 used, copied, transmitted, or stored only in accord with that
 written license.
  
 The following legend is applicable only to US Government
 contracts under FAR:
  
                    RESTRICTED RIGHTS LEGEND
  
 Use, reproduction and disclosure by the US Government is
 subject to restrictions as set forth in subparagraphs (a)
 and (c) of the Commercial Computer Software - Restricted
 Rights clause in FAR 52.227-19.
  
 Gaussian, Inc.
 340 Quinnipiac St., Bldg. 40, Wallingford CT 06492
  
  
 ---------------------------------------------------------------
 Warning -- This program may not be used in any manner that
 competes with the business of Gaussian, Inc. or will provide
 assistance to any competitor of Gaussian, Inc.  The licensee
 of this program is prohibited from giving any competitor of
 Gaussian, Inc. access to this program.  By using this program,
 the user acknowledges that Gaussian, Inc. is engaged in the
 business of creating and licensing software in the field of
 computational chemistry and represents and warrants to the
 licensee that it is not a competitor of Gaussian, Inc. and that
 it will not use this program in any manner prohibited above.
 ---------------------------------------------------------------
  

 Cite this work as:
 Gaussian 09, Revision D.01,
 M. J. Frisch, G. W. Trucks, H. B. Schlegel, G. E. Scuseria, 
 M. A. Robb, J. R. Cheeseman, G. Scalmani, V. Barone, B. Mennucci, 
 G. A. Petersson, H. Nakatsuji, M. Caricato, X. Li, H. P. Hratchian, 
 A. F. Izmaylov, J. Bloino, G. Zheng, J. L. Sonnenberg, M. Hada, 
 M. Ehara, K. Toyota, R. Fukuda, J. Hasegawa, M. Ishida, T. Nakajima, 
 Y. Honda, O. Kitao, H. Nakai, T. Vreven, J. A. Montgomery, Jr., 
 J. E. Peralta, F. Ogliaro, M. Bearpark, J. J. Heyd, E. Brothers, 
 K. N. Kudin, V. N. Staroverov, T. Keith, R. Kobayashi, J. Normand, 
 K. Raghavachari, A. Rendell, J. C. Burant, S. S. Iyengar, J. Tomasi, 
 M. Cossi, N. Rega, J. M. Millam, M. Klene, J. E. Knox, J. B. Cross, 
 V. Bakken, C. Adamo, J. Jaramillo, R. Gomperts, R. E. Stratmann, 
 O. Yazyev, A. J. Austin, R. Cammi, C. Pomelli, J. W. Ochterski, 
 R. L. Martin, K. Morokuma, V. G. Zakrzewski, G. A. Voth, 
 P. Salvador, J. J. Dannenberg, S. Dapprich, A. D. Daniels, 
 O. Farkas, J. B. Foresman, J. V. Ortiz, J. Cioslowski, 
 and D. J. Fox, Gaussian, Inc., Wallingford CT, 2013.
 
 ******************************************
 Gaussian 09:  AS64L-G09RevD.01 24-Apr-2013
                 6-Oct-2021 
 ******************************************
 --------------------------------------------------
 # opt=maxcyc=500 freq hf/cc-pvtz geom=connectivity
 --------------------------------------------------
 1/6=500,18=20,19=15,38=1,57=2/1,3;
 2/9=110,12=2,17=6,18=5,40=1/2;
 3/5=16,6=1,11=9,16=1,25=1,30=1,71=1/1,2,3;
 4//1;
 5/5=2,38=5/2;
 6/7=2,8=2,9=2,10=2,28=1/1;
 7//1,2,3,16;
 1/6=500,18=20,19=15/3(2);
 2/9=110/2;
 99//99;
 2/9=110/2;
 3/5=16,6=1,11=9,16=1,25=1,30=1,71=1/1,2,3;
 4/5=5,16=3,69=1/1;
 5/5=2,38=5/2;
 7//1,2,3,16;
 1/6=500,18=20,19=15/3(-5);
 2/9=110/2;
 6/7=2,8=2,9=2,10=2,19=2,28=1/1;
 99/9=1/99;
 -----
 Title
 -----
 Symbolic Z-matrix:
 Charge =  0 Multiplicity = 1
 C                     0.        0.79256   0. 
 O                     1.10164   1.14832   0. 
 Cl                   -0.46674  -0.904     0. 
 H                    -0.87857   1.42599   0. 
 

 GradGradGradGradGradGradGradGradGradGradGradGradGradGradGradGradGradGrad
 Berny optimization.
 Initialization pass.
                           ----------------------------
                           !    Initial Parameters    !
                           ! (Angstroms and Degrees)  !
 --------------------------                            --------------------------
 ! Name  Definition              Value          Derivative Info.                !
 --------------------------------------------------------------------------------
 ! R1    R(1,2)                  1.1577         estimate D2E/DX2                !
 ! R2    R(1,3)                  1.7596         estimate D2E/DX2                !
 ! R3    R(1,4)                  1.0831         estimate D2E/DX2                !
 ! A1    A(2,1,3)              123.2797         estimate D2E/DX2                !
 ! A2    A(2,1,4)              126.3113         estimate D2E/DX2                !
 ! A3    A(3,1,4)              110.409          estimate D2E/DX2                !
 ! D1    D(2,1,4,3)            180.0            estimate D2E/DX2                !
 --------------------------------------------------------------------------------
 Trust Radius=3.00D-01 FncErr=1.00D-07 GrdErr=1.00D-07
 Number of steps in this run=    100 maximum allowed number of steps=    100.
 GradGradGradGradGradGradGradGradGradGradGradGradGradGradGradGradGradGrad

                          Input orientation:                          
 ---------------------------------------------------------------------
 Center     Atomic      Atomic             Coordinates (Angstroms)
 Number     Number       Type             X           Y           Z
 ---------------------------------------------------------------------
      1          6           0        0.000000    0.792555    0.000000
      2          8           0        1.101640    1.148324    0.000000
      3         17           0       -0.466738   -0.903995    0.000000
      4          1           0       -0.878568    1.425990    0.000000
 ---------------------------------------------------------------------
                    Distance matrix (angstroms):
                    1          2          3          4
     1  C    0.000000
     2  O    1.157662   0.000000
     3  Cl   1.759581   2.582987   0.000000
     4  H    1.083107   1.999580   2.366101   0.000000
 Stoichiometry    CHClO
 Framework group  CS[SG(CHClO)]
 Deg. of freedom     5
 Full point group                 CS      NOp   2
 Largest Abelian subgroup         CS      NOp   2
 Largest concise Abelian subgroup C1      NOp   1
                         Standard orientation:                         
 ---------------------------------------------------------------------
 Center     Atomic      Atomic             Coordinates (Angstroms)
 Number     Number       Type             X           Y           Z
 ---------------------------------------------------------------------
      1          6           0        0.000000    0.792555    0.000000
      2          8           0        1.101640    1.148324    0.000000
      3         17           0       -0.466738   -0.903995    0.000000
      4          1           0       -0.878568    1.425990    0.000000
 ---------------------------------------------------------------------
 Rotational constants (GHZ):     80.4636925      6.2626843      5.8104434
 Standard basis: CC-pVTZ (5D, 7F)
 There are    86 symmetry adapted cartesian basis functions of A'  symmetry.
 There are    38 symmetry adapted cartesian basis functions of A"  symmetry.
 There are    73 symmetry adapted basis functions of A'  symmetry.
 There are    35 symmetry adapted basis functions of A"  symmetry.
   108 basis functions,   215 primitive gaussians,   124 cartesian basis functions
    16 alpha electrons       16 beta electrons
       nuclear repulsion energy        89.3297110646 Hartrees.
 NAtoms=    4 NActive=    4 NUniq=    4 SFac= 1.00D+00 NAtFMM=   60 NAOKFM=F Big=F
 Integral buffers will be    131072 words long.
 Raffenetti 1 integral format.
 Two-electron integral symmetry is turned on.
 One-electron integrals computed using PRISM.
 NBasis=   108 RedAO= T EigKep=  2.78D-03  NBF=    73    35
 NBsUse=   108 1.00D-06 EigRej= -1.00D+00 NBFU=    73    35
 ExpMin= 1.03D-01 ExpMax= 4.56D+05 ExpMxC= 1.44D+03 IAcc=2 IRadAn=         4 AccDes= 0.00D+00
 Harris functional with IExCor=  205 and IRadAn=       4 diagonalized for initial guess.
 HarFok:  IExCor=  205 AccDes= 0.00D+00 IRadAn=         4 IDoV= 1 UseB2=F ITyADJ=14
 ICtDFT=  3500011 ScaDFX=  1.000000  1.000000  1.000000  1.000000
 FoFCou: FMM=F IPFlag=           0 FMFlag=      100000 FMFlg1=           0
         NFxFlg=           0 DoJE=T BraDBF=F KetDBF=T FulRan=T
         wScrn=  0.000000 ICntrl=     500 IOpCl=  0 I1Cent=   200000004 NGrid=           0
         NMat0=    1 NMatS0=      1 NMatT0=    0 NMatD0=    1 NMtDS0=    0 NMtDT0=    0
 Petite list used in FoFCou.
 Initial guess orbital symmetries:
       Occupied  (A') (A') (A') (A') (A') (A') (A") (A') (A') (A')
                 (A') (A') (A") (A') (A") (A')
       Virtual   (A") (A') (A') (A') (A') (A") (A') (A') (A') (A")
                 (A') (A") (A') (A") (A') (A') (A') (A") (A') (A")
                 (A') (A') (A") (A') (A') (A") (A') (A') (A') (A')
                 (A") (A') (A") (A") (A') (A') (A") (A") (A') (A')
                 (A') (A') (A") (A') (A') (A") (A") (A') (A') (A")
                 (A') (A') (A') (A") (A') (A') (A") (A") (A") (A')
                 (A') (A') (A") (A') (A') (A") (A') (A") (A') (A")
                 (A') (A') (A') (A") (A') (A') (A') (A") (A') (A')
                 (A") (A') (A') (A") (A") (A') (A') (A") (A') (A')
                 (A') (A')
 The electronic state of the initial guess is 1-A'.
 Keep R1 ints in memory in symmetry-blocked form, NReq=26219823.
 Requested convergence on RMS density matrix=1.00D-08 within 128 cycles.
 Requested convergence on MAX density matrix=1.00D-06.
 Requested convergence on             energy=1.00D-06.
 No special actions if energy rises.
 SCF Done:  E(RHF) =  -572.866177493     A.U. after   13 cycles
            NFock= 13  Conv=0.33D-08     -V/T= 2.0001

 **********************************************************************

            Population analysis using the SCF density.

 **********************************************************************

 Orbital symmetries:
       Occupied  (A') (A') (A') (A') (A') (A") (A') (A') (A') (A')
                 (A') (A') (A") (A') (A") (A')
       Virtual   (A") (A') (A') (A') (A') (A") (A') (A') (A') (A")
                 (A') (A") (A') (A") (A') (A') (A') (A") (A") (A')
                 (A') (A') (A") (A') (A") (A') (A') (A') (A') (A')
                 (A") (A') (A") (A') (A") (A') (A") (A') (A") (A')
                 (A') (A") (A') (A') (A') (A") (A") (A') (A') (A")
                 (A') (A') (A') (A") (A') (A") (A') (A") (A") (A')
                 (A') (A') (A") (A') (A') (A") (A') (A") (A') (A')
                 (A") (A') (A') (A") (A') (A') (A') (A') (A") (A')
                 (A") (A') (A") (A') (A") (A') (A') (A") (A') (A')
                 (A') (A')
 The electronic state is 1-A'.
 Alpha  occ. eigenvalues -- -104.85844 -20.60670 -11.40887 -10.58435  -8.05097
 Alpha  occ. eigenvalues --   -8.04924  -8.04909  -1.47617  -1.14625  -0.85806
 Alpha  occ. eigenvalues --   -0.72236  -0.67721  -0.61371  -0.48156  -0.47785
 Alpha  occ. eigenvalues --   -0.46982
 Alpha virt. eigenvalues --    0.11537   0.13738   0.21609   0.28093   0.35570
 Alpha virt. eigenvalues --    0.41760   0.46280   0.47731   0.49931   0.50469
 Alpha virt. eigenvalues --    0.57869   0.60173   0.60931   0.64661   0.65787
 Alpha virt. eigenvalues --    0.74941   0.77810   0.84170   0.89469   0.92467
 Alpha virt. eigenvalues --    0.96169   1.01113   1.12082   1.16863   1.23621
 Alpha virt. eigenvalues --    1.25260   1.33828   1.39757   1.60938   1.80222
 Alpha virt. eigenvalues --    1.89408   1.92639   2.14352   2.18810   2.19626
 Alpha virt. eigenvalues --    2.22165   2.23926   2.26903   2.27328   2.28987
 Alpha virt. eigenvalues --    2.34664   2.38995   2.39093   2.43484   2.47456
 Alpha virt. eigenvalues --    2.50155   2.55796   2.56541   2.59496   2.60100
 Alpha virt. eigenvalues --    2.70312   2.82787   2.94165   3.03798   3.11094
 Alpha virt. eigenvalues --    3.22002   3.22183   3.26404   3.45915   3.49812
 Alpha virt. eigenvalues --    3.57146   3.65504   3.69694   3.72803   3.81578
 Alpha virt. eigenvalues --    3.95622   4.10457   4.13360   4.33931   4.44569
 Alpha virt. eigenvalues --    4.53965   4.72724   4.88840   4.99234   5.16733
 Alpha virt. eigenvalues --    5.30916   5.50908   5.58853   5.61508   5.73821
 Alpha virt. eigenvalues --    6.10110   6.22469   6.70790   6.73510   6.83250
 Alpha virt. eigenvalues --    6.87395   7.24723   7.27263   7.41322   7.53739
 Alpha virt. eigenvalues --   10.06094  13.97820
          Condensed to atoms (all electrons):
               1          2          3          4
     1  C    4.250274   0.761130   0.284103   0.416314
     2  O    0.761130   7.635656  -0.074979  -0.068152
     3  Cl   0.284103  -0.074979  17.026245  -0.078752
     4  H    0.416314  -0.068152  -0.078752   0.608495
 Mulliken charges:
               1
     1  C    0.288178
     2  O   -0.253656
     3  Cl  -0.156617
     4  H    0.122095
 Sum of Mulliken charges =   0.00000
 Mulliken charges with hydrogens summed into heavy atoms:
               1
     1  C    0.410273
     2  O   -0.253656
     3  Cl  -0.156617
 Electronic spatial extent (au):  <R**2>=            212.4151
 Charge=              0.0000 electrons
 Dipole moment (field-independent basis, Debye):
    X=             -1.9831    Y=              0.7374    Z=              0.0000  Tot=              2.1158
 Quadrupole moment (field-independent basis, Debye-Ang):
   XX=            -25.6936   YY=            -23.3333   ZZ=            -23.2812
   XY=             -3.0885   XZ=              0.0000   YZ=              0.0000
 Traceless Quadrupole moment (field-independent basis, Debye-Ang):
   XX=             -1.5909   YY=              0.7694   ZZ=              0.8215
   XY=             -3.0885   XZ=              0.0000   YZ=              0.0000
 Octapole moment (field-independent basis, Debye-Ang**2):
  XXX=             -0.5774  YYY=             -1.4016  ZZZ=              0.0000  XYY=             -4.4405
  XXY=             -0.8802  XXZ=              0.0000  XZZ=              0.9250  YZZ=              1.2213
  YYZ=              0.0000  XYZ=              0.0000
 Hexadecapole moment (field-independent basis, Debye-Ang**3):
 XXXX=            -85.2841 YYYY=           -148.8718 ZZZZ=            -23.0683 XXXY=            -37.5918
 XXXZ=              0.0000 YYYX=            -37.1574 YYYZ=              0.0000 ZZZX=              0.0000
 ZZZY=              0.0000 XXYY=            -40.3619 XXZZ=            -17.5815 YYZZ=            -29.3701
 XXYZ=              0.0000 YYXZ=              0.0000 ZZXY=            -11.2425
 N-N= 8.932971106461D+01 E-N=-1.540157542546D+03  KE= 5.728270641828D+02
 Symmetry A'   KE= 5.234903088684D+02
 Symmetry A"   KE= 4.933675531443D+01
 Calling FoFJK, ICntrl=      2127 FMM=F ISym2X=1 I1Cent= 0 IOpClX= 0 NMat=1 NMatS=1 NMatT=0.
 ***** Axes restored to original set *****
 -------------------------------------------------------------------
 Center     Atomic                   Forces (Hartrees/Bohr)
 Number     Number              X              Y              Z
 -------------------------------------------------------------------
      1        6          -0.000160979   -0.000030445    0.000000000
      2        8           0.000184908    0.000021577    0.000000000
      3       17           0.000012949    0.000010896    0.000000000
      4        1          -0.000036878   -0.000002028    0.000000000
 -------------------------------------------------------------------
 Cartesian Forces:  Max     0.000184908 RMS     0.000072542

 GradGradGradGradGradGradGradGradGradGradGradGradGradGradGradGradGradGrad
 Berny optimization.
 FormGI is forming the generalized inverse of G from B-inverse, IUseBI=4.
 Internal  Forces:  Max     0.000182591 RMS     0.000073243
 Search for a local minimum.
 Step number   1 out of a maximum of  100
 All quantities printed in internal units (Hartrees-Bohrs-Radians)
 Mixed Optimization -- En-DIIS/RFO-DIIS
 Second derivative matrix not updated -- first step.
 The second derivative matrix:
                          R1        R2        R3        A1        A2
           R1           1.29336
           R2           0.00000   0.29578
           R3           0.00000   0.00000   0.35621
           A1           0.00000   0.00000   0.00000   0.25000
           A2           0.00000   0.00000   0.00000   0.00000   0.16000
           A3           0.00000   0.00000   0.00000   0.00000   0.00000
           D1           0.00000   0.00000   0.00000   0.00000   0.00000
                          A3        D1
           A3           0.16000
           D1           0.00000   0.00326
 ITU=  0
     Eigenvalues ---    0.00326   0.16000   0.22000   0.29578   0.35621
     Eigenvalues ---    1.29336
 RFO step:  Lambda=-4.51879358D-08 EMin= 3.26006006D-03
 Linear search not attempted -- first point.
 Iteration  1 RMS(Cart)=  0.00013800 RMS(Int)=  0.00000001
 Iteration  2 RMS(Cart)=  0.00000001 RMS(Int)=  0.00000000
 ClnCor:  largest displacement from symmetrization is 4.68D-15 for atom     4.
 Variable       Old X    -DE/DX   Delta X   Delta X   Delta X     New X
                                 (Linear)    (Quad)   (Total)
    R1        2.18766   0.00018   0.00000   0.00014   0.00014   2.18781
    R2        3.32513  -0.00001   0.00000  -0.00005  -0.00005   3.32508
    R3        2.04678   0.00003   0.00000   0.00008   0.00008   2.04686
    A1        2.15164  -0.00004   0.00000  -0.00017  -0.00017   2.15147
    A2        2.20455   0.00004   0.00000   0.00023   0.00023   2.20478
    A3        1.92700  -0.00001   0.00000  -0.00006  -0.00006   1.92694
    D1        3.14159   0.00000   0.00000   0.00000   0.00000   3.14159
         Item               Value     Threshold  Converged?
 Maximum Force            0.000183     0.000450     YES
 RMS     Force            0.000073     0.000300     YES
 Maximum Displacement     0.000220     0.001800     YES
 RMS     Displacement     0.000138     0.001200     YES
 Predicted change in Energy=-2.259397D-08
 Optimization completed.
    -- Stationary point found.
                           ----------------------------
                           !   Optimized Parameters   !
                           ! (Angstroms and Degrees)  !
 --------------------------                            --------------------------
 ! Name  Definition              Value          Derivative Info.                !
 --------------------------------------------------------------------------------
 ! R1    R(1,2)                  1.1577         -DE/DX =    0.0002              !
 ! R2    R(1,3)                  1.7596         -DE/DX =    0.0                 !
 ! R3    R(1,4)                  1.0831         -DE/DX =    0.0                 !
 ! A1    A(2,1,3)              123.2797         -DE/DX =    0.0                 !
 ! A2    A(2,1,4)              126.3113         -DE/DX =    0.0                 !
 ! A3    A(3,1,4)              110.409          -DE/DX =    0.0                 !
 ! D1    D(2,1,4,3)            180.0            -DE/DX =    0.0                 !
 --------------------------------------------------------------------------------
 GradGradGradGradGradGradGradGradGradGradGradGradGradGradGradGradGradGrad

                          Input orientation:                          
 ---------------------------------------------------------------------
 Center     Atomic      Atomic             Coordinates (Angstroms)
 Number     Number       Type             X           Y           Z
 ---------------------------------------------------------------------
      1          6           0        0.000000    0.792555    0.000000
      2          8           0        1.101640    1.148324    0.000000
      3         17           0       -0.466738   -0.903995    0.000000
      4          1           0       -0.878568    1.425990    0.000000
 ---------------------------------------------------------------------
                    Distance matrix (angstroms):
                    1          2          3          4
     1  C    0.000000
     2  O    1.157662   0.000000
     3  Cl   1.759581   2.582987   0.000000
     4  H    1.083107   1.999580   2.366101   0.000000
 Stoichiometry    CHClO
 Framework group  CS[SG(CHClO)]
 Deg. of freedom     5
 Full point group                 CS      NOp   2
 Largest Abelian subgroup         CS      NOp   2
 Largest concise Abelian subgroup C1      NOp   1
                         Standard orientation:                         
 ---------------------------------------------------------------------
 Center     Atomic      Atomic             Coordinates (Angstroms)
 Number     Number       Type             X           Y           Z
 ---------------------------------------------------------------------
      1          6           0        0.000000    0.792555    0.000000
      2          8           0        1.101640    1.148324    0.000000
      3         17           0       -0.466738   -0.903995    0.000000
      4          1           0       -0.878568    1.425990    0.000000
 ---------------------------------------------------------------------
 Rotational constants (GHZ):     80.4636925      6.2626843      5.8104434
 1\1\GINC-C0700A-S3\FOpt\RHF\CC-pVTZ\C1H1Cl1O1\LE.CHEN\06-Oct-2021\0\\#
  opt=maxcyc=500 freq hf/cc-pvtz geom=connectivity\\Title\\0,1\C,0.,0.7
 92555,0.\O,1.10164,1.148324,0.\Cl,-0.466738,-0.903995,0.\H,-0.878568,1
 .42599,0.\\Version=AS64L-G09RevD.01\State=1-A'\HF=-572.8661775\RMSD=3.
 347e-09\RMSF=7.254e-05\Dipole=-0.7802297,0.2901319,0.\Quadrupole=-1.18
 27848,0.5720282,0.6107566,-2.2962617,0.,0.\PG=CS [SG(C1H1Cl1O1)]\\@


 GARBAGE IN, GARBAGE OUT
 Job cpu time:       0 days  0 hours  0 minutes  6.9 seconds.
 File lengths (MBytes):  RWF=      7 Int=      0 D2E=      0 Chk=      2 Scr=      1
 Normal termination of Gaussian 09 at Wed Oct  6 22:46:02 2021.
 Link1:  Proceeding to internal job step number  2.
 ----------------------------------------------------------------
 #N Geom=AllCheck Guess=TCheck SCRF=Check GenChk RHF/CC-pVTZ Freq
 ----------------------------------------------------------------
 1/6=500,10=4,29=7,30=1,38=1,40=1/1,3;
 2/12=2,40=1/2;
 3/5=16,6=1,11=1,14=-4,16=1,25=1,30=1,70=2,71=2,116=1,140=1/1,2,3;
 4/5=101/1;
 5/5=2,98=1/2;
 8/6=4,10=90,11=11/1;
 10/13=10,15=4/2;
 11/6=3,8=1,9=11,15=111,16=1/1,2,10;
 10/6=1/2;
 6/7=2,8=2,9=2,10=2,18=1,28=1/1;
 7/8=1,10=1,25=1/1,2,3,16;
 1/6=500,10=4,30=1/3;
 99//99;
 Structure from the checkpoint file:  "/blue/chm6586/le.chen/hw3/clcho/Gau-2350.chk"
 -----
 Title
 -----
 Charge =  0 Multiplicity = 1
 Redundant internal coordinates found in file.
 C,0,0.,0.792555,0.
 O,0,1.10164,1.148324,0.
 Cl,0,-0.466738,-0.903995,0.
 H,0,-0.878568,1.42599,0.
 Recover connectivity data from disk.

 GradGradGradGradGradGradGradGradGradGradGradGradGradGradGradGradGradGrad
 Berny optimization.
 Initialization pass.
                           ----------------------------
                           !    Initial Parameters    !
                           ! (Angstroms and Degrees)  !
 --------------------------                            --------------------------
 ! Name  Definition              Value          Derivative Info.                !
 --------------------------------------------------------------------------------
 ! R1    R(1,2)                  1.1577         calculate D2E/DX2 analytically  !
 ! R2    R(1,3)                  1.7596         calculate D2E/DX2 analytically  !
 ! R3    R(1,4)                  1.0831         calculate D2E/DX2 analytically  !
 ! A1    A(2,1,3)              123.2797         calculate D2E/DX2 analytically  !
 ! A2    A(2,1,4)              126.3113         calculate D2E/DX2 analytically  !
 ! A3    A(3,1,4)              110.409          calculate D2E/DX2 analytically  !
 ! D1    D(2,1,4,3)            180.0            calculate D2E/DX2 analytically  !
 --------------------------------------------------------------------------------
 Trust Radius=3.00D-01 FncErr=1.00D-07 GrdErr=1.00D-07
 Number of steps in this run=      2 maximum allowed number of steps=      2.
 GradGradGradGradGradGradGradGradGradGradGradGradGradGradGradGradGradGrad

                          Input orientation:                          
 ---------------------------------------------------------------------
 Center     Atomic      Atomic             Coordinates (Angstroms)
 Number     Number       Type             X           Y           Z
 ---------------------------------------------------------------------
      1          6           0        0.000000    0.792555    0.000000
      2          8           0        1.101640    1.148324    0.000000
      3         17           0       -0.466738   -0.903995    0.000000
      4          1           0       -0.878568    1.425990    0.000000
 ---------------------------------------------------------------------
                    Distance matrix (angstroms):
                    1          2          3          4
     1  C    0.000000
     2  O    1.157662   0.000000
     3  Cl   1.759581   2.582987   0.000000
     4  H    1.083107   1.999580   2.366101   0.000000
 Stoichiometry    CHClO
 Framework group  CS[SG(CHClO)]
 Deg. of freedom     5
 Full point group                 CS      NOp   2
 Largest Abelian subgroup         CS      NOp   2
 Largest concise Abelian subgroup C1      NOp   1
                         Standard orientation:                         
 ---------------------------------------------------------------------
 Center     Atomic      Atomic             Coordinates (Angstroms)
 Number     Number       Type             X           Y           Z
 ---------------------------------------------------------------------
      1          6           0        0.000000    0.792555    0.000000
      2          8           0        1.101640    1.148324    0.000000
      3         17           0       -0.466738   -0.903995    0.000000
      4          1           0       -0.878568    1.425990    0.000000
 ---------------------------------------------------------------------
 Rotational constants (GHZ):     80.4636925      6.2626843      5.8104434
 Standard basis: CC-pVTZ (5D, 7F)
 There are    86 symmetry adapted cartesian basis functions of A'  symmetry.
 There are    38 symmetry adapted cartesian basis functions of A"  symmetry.
 There are    73 symmetry adapted basis functions of A'  symmetry.
 There are    35 symmetry adapted basis functions of A"  symmetry.
   108 basis functions,   215 primitive gaussians,   124 cartesian basis functions
    16 alpha electrons       16 beta electrons
       nuclear repulsion energy        89.3297110646 Hartrees.
 NAtoms=    4 NActive=    4 NUniq=    4 SFac= 1.00D+00 NAtFMM=   60 NAOKFM=F Big=F
 Integral buffers will be    131072 words long.
 Raffenetti 1 integral format.
 Two-electron integral symmetry is turned on.
 One-electron integrals computed using PRISM.
 NBasis=   108 RedAO= T EigKep=  2.78D-03  NBF=    73    35
 NBsUse=   108 1.00D-06 EigRej= -1.00D+00 NBFU=    73    35
 Initial guess from the checkpoint file:  "/blue/chm6586/le.chen/hw3/clcho/Gau-2350.chk"
 B after Tr=     0.000000    0.000000    0.000000
         Rot=    1.000000    0.000000    0.000000    0.000000 Ang=   0.00 deg.
 Initial guess orbital symmetries:
       Occupied  (A') (A') (A') (A') (A') (A") (A') (A') (A') (A')
                 (A') (A') (A") (A') (A") (A')
       Virtual   (A") (A') (A') (A') (A') (A") (A') (A') (A') (A")
                 (A') (A") (A') (A") (A') (A') (A') (A") (A") (A')
                 (A') (A') (A") (A') (A") (A') (A') (A') (A') (A')
                 (A") (A') (A") (A') (A") (A') (A") (A') (A") (A')
                 (A') (A") (A') (A') (A') (A") (A") (A') (A') (A")
                 (A') (A') (A') (A") (A') (A") (A') (A") (A") (A')
                 (A') (A') (A") (A') (A') (A") (A') (A") (A') (A')
                 (A") (A') (A') (A") (A') (A') (A') (A') (A") (A')
                 (A") (A') (A") (A') (A") (A') (A') (A") (A') (A')
                 (A') (A')
 Keep R1 ints in memory in symmetry-blocked form, NReq=26219823.
 Requested convergence on RMS density matrix=1.00D-08 within 128 cycles.
 Requested convergence on MAX density matrix=1.00D-06.
 Requested convergence on             energy=1.00D-06.
 No special actions if energy rises.
 SCF Done:  E(RHF) =  -572.866177493     A.U. after    1 cycles
            NFock=  1  Conv=0.33D-09     -V/T= 2.0001
 Range of M.O.s used for correlation:     1   108
 NBasis=   108 NAE=    16 NBE=    16 NFC=     0 NFV=     0
 NROrb=    108 NOA=    16 NOB=    16 NVA=    92 NVB=    92
          Differentiating once with respect to electric field.
                with respect to dipole field.
          Electric field/nuclear overlap derivatives assumed to be zero.
 Keep R1 ints in memory in symmetry-blocked form, NReq=26154528.
          There are     3 degrees of freedom in the 1st order CPHF.  IDoFFX=0 NUNeed=     3.
      3 vectors produced by pass  0 Test12= 4.91D-14 3.33D-08 XBig12= 8.57D+00 1.32D+00.
 AX will form     3 AO Fock derivatives at one time.
      3 vectors produced by pass  1 Test12= 4.91D-14 3.33D-08 XBig12= 7.39D-01 2.27D-01.
      3 vectors produced by pass  2 Test12= 4.91D-14 3.33D-08 XBig12= 1.32D-01 1.86D-01.
      3 vectors produced by pass  3 Test12= 4.91D-14 3.33D-08 XBig12= 9.72D-03 2.57D-02.
      3 vectors produced by pass  4 Test12= 4.91D-14 3.33D-08 XBig12= 4.71D-04 6.88D-03.
      3 vectors produced by pass  5 Test12= 4.91D-14 3.33D-08 XBig12= 1.37D-05 1.01D-03.
      3 vectors produced by pass  6 Test12= 4.91D-14 3.33D-08 XBig12= 9.89D-07 2.97D-04.
      3 vectors produced by pass  7 Test12= 4.91D-14 3.33D-08 XBig12= 3.75D-08 6.03D-05.
      3 vectors produced by pass  8 Test12= 4.91D-14 3.33D-08 XBig12= 9.23D-10 7.43D-06.
      3 vectors produced by pass  9 Test12= 4.91D-14 3.33D-08 XBig12= 2.44D-11 2.01D-06.
      1 vectors produced by pass 10 Test12= 4.91D-14 3.33D-08 XBig12= 5.44D-13 1.54D-07.
 InvSVY:  IOpt=1 It=  1 EMax= 1.78D-15
 Solved reduced A of dimension    31 with     3 vectors.
 End of Minotr F.D. properties file   721 does not exist.
 End of Minotr F.D. properties file   722 does not exist.
 End of Minotr F.D. properties file   788 does not exist.
 Symmetrizing basis deriv contribution to polar:
 IMax=3 JMax=2 DiffMx= 0.00D+00
 G2DrvN: will do     5 centers at a time, making    1 passes.
 PxScal for G2LodP:  IOpCl= 0 ISclPx=1 IMOff=     1 NMtTot=     4 NTT=    5886 ScalPx= 2.08D+00
 Calling FoFCou, ICntrl=  3107 FMM=F I1Cent=   0 AccDes= 0.00D+00.
 End of G2Drv F.D. properties file   721 does not exist.
 End of G2Drv F.D. properties file   722 does not exist.
 End of G2Drv F.D. properties file   788 does not exist.
          IDoAtm=1111
          Differentiating once with respect to electric field.
                with respect to dipole field.
          Differentiating once with respect to nuclear coordinates.
 Keep R1 ints in memory in symmetry-blocked form, NReq=26154620.
          There are    15 degrees of freedom in the 1st order CPHF.  IDoFFX=5 NUNeed=    15.
 Will reuse    3 saved solutions.
      9 vectors produced by pass  0 Test12= 9.81D-15 6.67D-09 XBig12= 1.09D-01 9.60D-02.
 AX will form     9 AO Fock derivatives at one time.
      9 vectors produced by pass  1 Test12= 9.81D-15 6.67D-09 XBig12= 2.30D-02 7.31D-02.
      9 vectors produced by pass  2 Test12= 9.81D-15 6.67D-09 XBig12= 1.53D-03 1.34D-02.
      9 vectors produced by pass  3 Test12= 9.81D-15 6.67D-09 XBig12= 5.01D-05 1.79D-03.
      9 vectors produced by pass  4 Test12= 9.81D-15 6.67D-09 XBig12= 1.57D-06 3.24D-04.
      9 vectors produced by pass  5 Test12= 9.81D-15 6.67D-09 XBig12= 1.85D-08 2.33D-05.
      9 vectors produced by pass  6 Test12= 9.81D-15 6.67D-09 XBig12= 1.92D-10 3.77D-06.
      7 vectors produced by pass  7 Test12= 9.81D-15 6.67D-09 XBig12= 1.91D-12 2.92D-07.
      1 vectors produced by pass  8 Test12= 9.81D-15 6.67D-09 XBig12= 1.69D-14 3.23D-08.
 InvSVY:  IOpt=1 It=  1 EMax= 8.88D-16
 Solved reduced A of dimension    71 with     9 vectors.
 Isotropic polarizability for W=    0.000000       24.49 Bohr**3.
 End of Minotr F.D. properties file   721 does not exist.
 End of Minotr F.D. properties file   722 does not exist.
 End of Minotr F.D. properties file   788 does not exist.

 **********************************************************************

            Population analysis using the SCF density.

 **********************************************************************

 Orbital symmetries:
       Occupied  (A') (A') (A') (A') (A') (A") (A') (A') (A') (A')
                 (A') (A') (A") (A') (A") (A')
       Virtual   (A") (A') (A') (A') (A') (A") (A') (A') (A') (A")
                 (A') (A") (A') (A") (A') (A') (A') (A") (A") (A')
                 (A') (A') (A") (A') (A") (A') (A') (A') (A') (A')
                 (A") (A') (A") (A') (A") (A') (A") (A') (A") (A')
                 (A') (A") (A') (A') (A') (A") (A") (A') (A') (A")
                 (A') (A') (A') (A") (A') (A") (A') (A") (A") (A')
                 (A') (A') (A") (A') (A') (A") (A') (A") (A') (A')
                 (A") (A') (A') (A") (A') (A') (A') (A') (A") (A')
                 (A") (A') (A") (A') (A") (A') (A') (A") (A') (A')
                 (A') (A')
 The electronic state is 1-A'.
 Alpha  occ. eigenvalues -- -104.85844 -20.60670 -11.40887 -10.58435  -8.05097
 Alpha  occ. eigenvalues --   -8.04924  -8.04909  -1.47617  -1.14625  -0.85806
 Alpha  occ. eigenvalues --   -0.72236  -0.67721  -0.61371  -0.48156  -0.47785
 Alpha  occ. eigenvalues --   -0.46982
 Alpha virt. eigenvalues --    0.11537   0.13738   0.21609   0.28093   0.35570
 Alpha virt. eigenvalues --    0.41760   0.46280   0.47731   0.49931   0.50469
 Alpha virt. eigenvalues --    0.57869   0.60173   0.60931   0.64661   0.65787
 Alpha virt. eigenvalues --    0.74941   0.77810   0.84170   0.89469   0.92467
 Alpha virt. eigenvalues --    0.96169   1.01113   1.12082   1.16863   1.23621
 Alpha virt. eigenvalues --    1.25260   1.33828   1.39757   1.60938   1.80222
 Alpha virt. eigenvalues --    1.89408   1.92639   2.14352   2.18810   2.19626
 Alpha virt. eigenvalues --    2.22165   2.23926   2.26903   2.27328   2.28987
 Alpha virt. eigenvalues --    2.34664   2.38995   2.39093   2.43484   2.47456
 Alpha virt. eigenvalues --    2.50155   2.55796   2.56541   2.59496   2.60100
 Alpha virt. eigenvalues --    2.70312   2.82787   2.94165   3.03798   3.11094
 Alpha virt. eigenvalues --    3.22002   3.22183   3.26404   3.45915   3.49812
 Alpha virt. eigenvalues --    3.57146   3.65504   3.69694   3.72803   3.81578
 Alpha virt. eigenvalues --    3.95622   4.10457   4.13360   4.33931   4.44569
 Alpha virt. eigenvalues --    4.53965   4.72724   4.88840   4.99234   5.16733
 Alpha virt. eigenvalues --    5.30916   5.50908   5.58853   5.61508   5.73821
 Alpha virt. eigenvalues --    6.10110   6.22469   6.70790   6.73510   6.83250
 Alpha virt. eigenvalues --    6.87395   7.24723   7.27263   7.41322   7.53739
 Alpha virt. eigenvalues --   10.06094  13.97820
          Condensed to atoms (all electrons):
               1          2          3          4
     1  C    4.250274   0.761130   0.284103   0.416314
     2  O    0.761130   7.635656  -0.074979  -0.068152
     3  Cl   0.284103  -0.074979  17.026245  -0.078752
     4  H    0.416314  -0.068152  -0.078752   0.608495
 Mulliken charges:
               1
     1  C    0.288178
     2  O   -0.253656
     3  Cl  -0.156617
     4  H    0.122095
 Sum of Mulliken charges =   0.00000
 Mulliken charges with hydrogens summed into heavy atoms:
               1
     1  C    0.410273
     2  O   -0.253656
     3  Cl  -0.156617
 APT charges:
               1
     1  C    1.246020
     2  O   -0.781618
     3  Cl  -0.457539
     4  H   -0.006863
 Sum of APT charges =   0.00000
 APT charges with hydrogens summed into heavy atoms:
               1
     1  C    1.239157
     2  O   -0.781618
     3  Cl  -0.457539
 Electronic spatial extent (au):  <R**2>=            212.4151
 Charge=              0.0000 electrons
 Dipole moment (field-independent basis, Debye):
    X=             -1.9831    Y=              0.7374    Z=              0.0000  Tot=              2.1158
 Quadrupole moment (field-independent basis, Debye-Ang):
   XX=            -25.6936   YY=            -23.3333   ZZ=            -23.2812
   XY=             -3.0885   XZ=              0.0000   YZ=              0.0000
 Traceless Quadrupole moment (field-independent basis, Debye-Ang):
   XX=             -1.5909   YY=              0.7694   ZZ=              0.8215
   XY=             -3.0885   XZ=              0.0000   YZ=              0.0000
 Octapole moment (field-independent basis, Debye-Ang**2):
  XXX=             -0.5774  YYY=             -1.4016  ZZZ=              0.0000  XYY=             -4.4405
  XXY=             -0.8802  XXZ=              0.0000  XZZ=              0.9250  YZZ=              1.2213
  YYZ=              0.0000  XYZ=              0.0000
 Hexadecapole moment (field-independent basis, Debye-Ang**3):
 XXXX=            -85.2841 YYYY=           -148.8718 ZZZZ=            -23.0683 XXXY=            -37.5918
 XXXZ=              0.0000 YYYX=            -37.1574 YYYZ=              0.0000 ZZZX=              0.0000
 ZZZY=              0.0000 XXYY=            -40.3619 XXZZ=            -17.5815 YYZZ=            -29.3701
 XXYZ=              0.0000 YYXZ=              0.0000 ZZXY=            -11.2425
 N-N= 8.932971106461D+01 E-N=-1.540157542336D+03  KE= 5.728270640705D+02
 Symmetry A'   KE= 5.234903087912D+02
 Symmetry A"   KE= 4.933675527933D+01
  Exact polarizability:  25.114   5.579  32.201   0.000   0.000  16.154
 Approx polarizability:  24.999   4.932  29.244   0.000   0.000  17.523
 Calling FoFJK, ICntrl=    100127 FMM=F ISym2X=1 I1Cent= 0 IOpClX= 0 NMat=1 NMatS=1 NMatT=0.
 Full mass-weighted force constant matrix:
 Low frequencies ---  -18.2155   -5.9222   -0.0044   -0.0034    0.0010    1.9345
 Low frequencies ---  504.5759  806.7348 1071.9095
 Diagonal vibrational polarizability:
        2.5368602      12.0734363       0.0047238
 Diagonal vibrational hyperpolarizability:
       -6.2649044      68.6407114       0.0000000
 Harmonic frequencies (cm**-1), IR intensities (KM/Mole), Raman scattering
 activities (A**4/AMU), depolarization ratios for plane and unpolarized
 incident light, reduced masses (AMU), force constants (mDyne/A),
 and normal coordinates:
                      1                      2                      3
                     A'                     A'                     A"
 Frequencies --    504.5759               806.7348              1071.9095
 Red. masses --     16.5871                 6.4145                 1.5930
 Frc consts  --      2.4881                 2.4597                 1.0784
 IR Inten    --      7.3785               243.2763                 0.2017
 Raman Activ --      7.6801                 9.5696                 1.0165
 Depolar (P) --      0.3956                 0.2988                 0.7500
 Depolar (U) --      0.5670                 0.4602                 0.8571
  Atom  AN      X      Y      Z        X      Y      Z        X      Y      Z
     1   6     0.44   0.05   0.00    -0.13   0.60   0.00     0.00   0.00   0.22
     2   8     0.24   0.67   0.00     0.07  -0.14   0.00     0.00   0.00  -0.06
     3  17    -0.27  -0.32   0.00     0.01  -0.17   0.00     0.00   0.00  -0.02
     4   1     0.21  -0.29   0.00    -0.02   0.76   0.00     0.00   0.00  -0.97
                      4                      5                      6
                     A'                     A'                     A'
 Frequencies --   1459.8612              2018.6286              3239.8363
 Red. masses --      1.1126                 9.7770                 1.1008
 Frc consts  --      1.3970                23.4731                 6.8077
 IR Inten    --     52.1986               462.1611                23.2722
 Raman Activ --      1.5750                11.9400               110.0037
 Depolar (P) --      0.6225                 0.3745                 0.2972
 Depolar (U) --      0.7673                 0.5450                 0.4583
  Atom  AN      X      Y      Z        X      Y      Z        X      Y      Z
     1   6    -0.01  -0.08   0.00     0.62   0.20   0.00    -0.08   0.05   0.00
     2   8    -0.04   0.03   0.00    -0.50  -0.15   0.00     0.01   0.00   0.00
     3  17     0.00  -0.01   0.00     0.00   0.01   0.00     0.00   0.00   0.00
     4   1     0.61   0.79   0.00     0.44  -0.32   0.00     0.81  -0.58   0.00

 -------------------
 - Thermochemistry -
 -------------------
 Temperature   298.150 Kelvin.  Pressure   1.00000 Atm.
 Atom     1 has atomic number  6 and mass  12.00000
 Atom     2 has atomic number  8 and mass  15.99491
 Atom     3 has atomic number 17 and mass  34.96885
 Atom     4 has atomic number  1 and mass   1.00783
 Molecular mass:    63.97159 amu.
 Principal axes and moments of inertia in atomic units:
                           1         2         3
     Eigenvalues --    22.42926 288.17375 310.60301
           X            0.53781   0.84307   0.00000
           Y            0.84307  -0.53781   0.00000
           Z            0.00000   0.00000   1.00000
 This molecule is an asymmetric top.
 Rotational symmetry number  1.
 Rotational temperatures (Kelvin)      3.86164     0.30056     0.27886
 Rotational constants (GHZ):          80.46369     6.26268     5.81044
 Zero-point vibrational energy      54439.3 (Joules/Mol)
                                   13.01131 (Kcal/Mol)
 Warning -- explicit consideration of   1 degrees of freedom as
           vibrations may cause significant error
 Vibrational temperatures:    725.97  1160.71  1542.24  2100.41  2904.35
          (Kelvin)           4661.40
 
 Zero-point correction=                           0.020735 (Hartree/Particle)
 Thermal correction to Energy=                    0.023899
 Thermal correction to Enthalpy=                  0.024843
 Thermal correction to Gibbs Free Energy=        -0.004398
 Sum of electronic and zero-point Energies=           -572.845443
 Sum of electronic and thermal Energies=              -572.842279
 Sum of electronic and thermal Enthalpies=            -572.841334
 Sum of electronic and thermal Free Energies=         -572.870575
 
                     E (Thermal)             CV                S
                      KCal/Mol        Cal/Mol-Kelvin    Cal/Mol-Kelvin
 Total                   14.997              8.243             61.543
 Electronic               0.000              0.000              0.000
 Translational            0.889              2.981             38.386
 Rotational               0.889              2.981             22.223
 Vibrational             13.219              2.282              0.934
 Vibration     1          0.860              1.240              0.647
                       Q            Log10(Q)             Ln(Q)
 Total Bot       0.105416D+03          2.022907          4.657914
 Total V=0       0.363291D+12         11.560254         26.618469
 Vib (Bot)       0.326803D-09         -9.485713        -21.841662
 Vib (Bot)    1  0.324400D+00         -0.488919         -1.125778
 Vib (V=0)       0.112625D+01          0.051634          0.118893
 Vib (V=0)    1  0.109602D+01          0.039817          0.091682
 Electronic      0.100000D+01          0.000000          0.000000
 Translational   0.201111D+08          7.303436         16.816783
 Rotational      0.160392D+05          4.205184          9.682794
 ***** Axes restored to original set *****
 -------------------------------------------------------------------
 Center     Atomic                   Forces (Hartrees/Bohr)
 Number     Number              X              Y              Z
 -------------------------------------------------------------------
      1        6          -0.000160982   -0.000030450    0.000000000
      2        8           0.000184913    0.000021580    0.000000000
      3       17           0.000012946    0.000010899    0.000000000
      4        1          -0.000036877   -0.000002029    0.000000000
 -------------------------------------------------------------------
 Cartesian Forces:  Max     0.000184913 RMS     0.000072544
 FormGI is forming the generalized inverse of G from B-inverse, IUseBI=4.

 GradGradGradGradGradGradGradGradGradGradGradGradGradGradGradGradGradGrad
 Berny optimization.
 Internal  Forces:  Max     0.000182597 RMS     0.000073245
 Search for a local minimum.
 Step number   1 out of a maximum of    2
 All quantities printed in internal units (Hartrees-Bohrs-Radians)
 Second derivative matrix not updated -- analytic derivatives used.
 The second derivative matrix:
                          R1        R2        R3        A1        A2
           R1           1.13603
           R2           0.09290   0.22096
           R3           0.02536   0.00833   0.36917
           A1           0.01451   0.02199  -0.00756   0.16549
           A2           0.02663  -0.04222   0.00736  -0.08776   0.12430
           A3          -0.04114   0.02022   0.00020  -0.07774  -0.03655
           D1           0.00000   0.00000   0.00000   0.00000   0.00000
                          A3        D1
           A3           0.11428
           D1           0.00000   0.08995
 ITU=  0
     Eigenvalues ---    0.08995   0.12588   0.21633   0.27020   0.36925
     Eigenvalues ---    1.14857
 Angle between quadratic step and forces=  37.36 degrees.
 Linear search not attempted -- first point.
 Iteration  1 RMS(Cart)=  0.00011858 RMS(Int)=  0.00000001
 Iteration  2 RMS(Cart)=  0.00000001 RMS(Int)=  0.00000000
 ClnCor:  largest displacement from symmetrization is 2.22D-16 for atom     3.
 Variable       Old X    -DE/DX   Delta X   Delta X   Delta X     New X
                                 (Linear)    (Quad)   (Total)
    R1        2.18766   0.00018   0.00000   0.00016   0.00016   2.18783
    R2        3.32513  -0.00001   0.00000  -0.00009  -0.00009   3.32504
    R3        2.04678   0.00003   0.00000   0.00006   0.00006   2.04684
    A1        2.15164  -0.00004   0.00000  -0.00015  -0.00015   2.15149
    A2        2.20455   0.00004   0.00000   0.00016   0.00016   2.20471
    A3        1.92700  -0.00001   0.00000  -0.00002  -0.00002   1.92698
    D1        3.14159   0.00000   0.00000   0.00000   0.00000   3.14159
         Item               Value     Threshold  Converged?
 Maximum Force            0.000183     0.000450     YES
 RMS     Force            0.000073     0.000300     YES
 Maximum Displacement     0.000179     0.001800     YES
 RMS     Displacement     0.000119     0.001200     YES
 Predicted change in Energy=-2.267098D-08
 Optimization completed.
    -- Stationary point found.
                           ----------------------------
                           !   Optimized Parameters   !
                           ! (Angstroms and Degrees)  !
 --------------------------                            --------------------------
 ! Name  Definition              Value          Derivative Info.                !
 --------------------------------------------------------------------------------
 ! R1    R(1,2)                  1.1577         -DE/DX =    0.0002              !
 ! R2    R(1,3)                  1.7596         -DE/DX =    0.0                 !
 ! R3    R(1,4)                  1.0831         -DE/DX =    0.0                 !
 ! A1    A(2,1,3)              123.2797         -DE/DX =    0.0                 !
 ! A2    A(2,1,4)              126.3113         -DE/DX =    0.0                 !
 ! A3    A(3,1,4)              110.409          -DE/DX =    0.0                 !
 ! D1    D(2,1,4,3)            180.0            -DE/DX =    0.0                 !
 --------------------------------------------------------------------------------
 GradGradGradGradGradGradGradGradGradGradGradGradGradGradGradGradGradGrad

 1\1\GINC-C0700A-S3\Freq\RHF\CC-pVTZ\C1H1Cl1O1\LE.CHEN\06-Oct-2021\0\\#
 N Geom=AllCheck Guess=TCheck SCRF=Check GenChk RHF/CC-pVTZ Freq\\Title
 \\0,1\C,0.,0.792555,0.\O,1.10164,1.148324,0.\Cl,-0.466738,-0.903995,0.
 \H,-0.878568,1.42599,0.\\Version=AS64L-G09RevD.01\State=1-A'\HF=-572.8
 661775\RMSD=3.316e-10\RMSF=7.254e-05\ZeroPoint=0.0207348\Thermal=0.023
 8988\Dipole=-0.7802298,0.2901319,0.\DipoleDeriv=1.3710217,0.8507463,0.
 ,0.5715486,2.0350847,0.,0.,0.,0.3319543,-1.1546271,-0.7006044,0.,-0.28
 77432,-0.8587011,0.,0.,0.,-0.3315268,-0.216931,-0.1789187,0.,-0.311512
 8,-1.0390539,0.,0.,0.,-0.1166315,0.0005364,0.0287768,0.,0.0277075,-0.1
 373297,0.,0.,0.,0.116204\Polar=25.1142506,5.5792851,32.2007385,0.,0.,1
 6.1539948\PolarDeriv=-2.9363781,-4.504712,7.5210908,0.,0.,-0.8057546,-
 3.3905227,1.6902356,5.4950493,0.,0.,-0.1468657,0.,0.,0.,-1.0384204,1.1
 646075,0.,10.1038401,5.1947995,-0.5394099,0.,0.,1.7448885,1.7557109,3.
 9491666,3.580328,0.,0.,0.4790281,0.,0.,0.,3.1377859,1.8437588,0.,-3.14
 91341,-4.5450747,-2.0822622,0.,0.,-0.2090016,-0.026184,-2.5597582,-14.
 0237796,0.,0.,-0.7446642,0.,0.,0.,-1.3587691,-4.1808091,0.,-4.0183279,
 3.8549873,-4.8994186,0.,0.,-0.7301323,1.6609959,-3.079644,4.9484022,0.
 ,0.,0.4125019,0.,0.,0.,-0.7405965,1.1724429,0.\HyperPolar=-33.3284692,
 12.8000256,-22.6851946,6.0834084,0.,0.,0.,-4.1664111,-0.2442684,0.\PG=
 CS [SG(C1H1Cl1O1)]\NImag=0\\1.23708391,0.06552546,0.46323709,0.,0.,0.1
 8360449,-0.97017743,-0.20396669,0.,1.04116439,-0.25646136,-0.17109744,
 0.,0.29931260,0.19200974,0.,0.,-0.07284049,0.,0.,0.02886401,-0.0348967
 0,0.00054094,0.,-0.02442139,-0.05708032,0.,0.05241827,0.04211438,-0.13
 166471,0.,-0.07561688,-0.04287540,0.,0.04689657,0.20790856,0.,0.,-0.04
 124161,0.,0.,0.01636775,0.,0.,0.00926397,-0.23200978,0.13790029,0.,-0.
 04656557,0.01422908,0.,0.00689982,-0.01339407,0.,0.27167553,0.14882152
 ,-0.16047495,0.,-0.01972903,0.02196311,0.,0.00964281,-0.03336845,0.,-0
 .13873530,0.17188029,0.,0.,-0.06952239,0.,0.,0.02760873,0.,0.,0.015609
 90,0.,0.,0.02630376\\0.00016098,0.00003045,0.,-0.00018491,-0.00002158,
 0.,-0.00001295,-0.00001090,0.,0.00003688,0.00000203,0.\\\@


 MISERY NO LONGER LOVES COMPANY.  NOWADAYS IT INSISTS ON IT.

                                              -- BAKER'S LAW
 Job cpu time:       0 days  0 hours  0 minutes 30.3 seconds.
 File lengths (MBytes):  RWF=     11 Int=      0 D2E=      0 Chk=      2 Scr=      1
 Normal termination of Gaussian 09 at Wed Oct  6 22:46:33 2021.
