 Entering Gaussian System, Link 0=g09
 Initial command:
 /apps/gaussian/g09/amd-sse4a/l1.exe "/blue/chm6586/le.chen/hw2/homo/Gau-67299.inp" -scrdir="/blue/chm6586/le.chen/hw2/homo/"
 Entering Link 1 = /apps/gaussian/g09/amd-sse4a/l1.exe PID=     67300.
  
 Copyright (c) 1988,1990,1992,1993,1995,1998,2003,2009,2013,
            Gaussian, Inc.  All Rights Reserved.
  
 This is part of the Gaussian(R) 09 program.  It is based on
 the Gaussian(R) 03 system (copyright 2003, Gaussian, Inc.),
 the Gaussian(R) 98 system (copyright 1998, Gaussian, Inc.),
 the Gaussian(R) 94 system (copyright 1995, Gaussian, Inc.),
 the Gaussian 92(TM) system (copyright 1992, Gaussian, Inc.),
 the Gaussian 90(TM) system (copyright 1990, Gaussian, Inc.),
 the Gaussian 88(TM) system (copyright 1988, Gaussian, Inc.),
 the Gaussian 86(TM) system (copyright 1986, Carnegie Mellon
 University), and the Gaussian 82(TM) system (copyright 1983,
 Carnegie Mellon University). Gaussian is a federally registered
 trademark of Gaussian, Inc.
  
 This software contains proprietary and confidential information,
 including trade secrets, belonging to Gaussian, Inc.
  
 This software is provided under written license and may be
 used, copied, transmitted, or stored only in accord with that
 written license.
  
 The following legend is applicable only to US Government
 contracts under FAR:
  
                    RESTRICTED RIGHTS LEGEND
  
 Use, reproduction and disclosure by the US Government is
 subject to restrictions as set forth in subparagraphs (a)
 and (c) of the Commercial Computer Software - Restricted
 Rights clause in FAR 52.227-19.
  
 Gaussian, Inc.
 340 Quinnipiac St., Bldg. 40, Wallingford CT 06492
  
  
 ---------------------------------------------------------------
 Warning -- This program may not be used in any manner that
 competes with the business of Gaussian, Inc. or will provide
 assistance to any competitor of Gaussian, Inc.  The licensee
 of this program is prohibited from giving any competitor of
 Gaussian, Inc. access to this program.  By using this program,
 the user acknowledges that Gaussian, Inc. is engaged in the
 business of creating and licensing software in the field of
 computational chemistry and represents and warrants to the
 licensee that it is not a competitor of Gaussian, Inc. and that
 it will not use this program in any manner prohibited above.
 ---------------------------------------------------------------
  

 Cite this work as:
 Gaussian 09, Revision D.01,
 M. J. Frisch, G. W. Trucks, H. B. Schlegel, G. E. Scuseria, 
 M. A. Robb, J. R. Cheeseman, G. Scalmani, V. Barone, B. Mennucci, 
 G. A. Petersson, H. Nakatsuji, M. Caricato, X. Li, H. P. Hratchian, 
 A. F. Izmaylov, J. Bloino, G. Zheng, J. L. Sonnenberg, M. Hada, 
 M. Ehara, K. Toyota, R. Fukuda, J. Hasegawa, M. Ishida, T. Nakajima, 
 Y. Honda, O. Kitao, H. Nakai, T. Vreven, J. A. Montgomery, Jr., 
 J. E. Peralta, F. Ogliaro, M. Bearpark, J. J. Heyd, E. Brothers, 
 K. N. Kudin, V. N. Staroverov, T. Keith, R. Kobayashi, J. Normand, 
 K. Raghavachari, A. Rendell, J. C. Burant, S. S. Iyengar, J. Tomasi, 
 M. Cossi, N. Rega, J. M. Millam, M. Klene, J. E. Knox, J. B. Cross, 
 V. Bakken, C. Adamo, J. Jaramillo, R. Gomperts, R. E. Stratmann, 
 O. Yazyev, A. J. Austin, R. Cammi, C. Pomelli, J. W. Ochterski, 
 R. L. Martin, K. Morokuma, V. G. Zakrzewski, G. A. Voth, 
 P. Salvador, J. J. Dannenberg, S. Dapprich, A. D. Daniels, 
 O. Farkas, J. B. Foresman, J. V. Ortiz, J. Cioslowski, 
 and D. J. Fox, Gaussian, Inc., Wallingford CT, 2013.
 
 ******************************************
 Gaussian 09:  AS64L-G09RevD.01 24-Apr-2013
                23-Sep-2021 
 ******************************************
 --------
 #am1 opt
 --------
 1/14=-1,18=20,19=15,26=1,38=1/1,3;
 2/9=110,12=2,17=6,18=5,40=1/2;
 3/5=2,16=1,25=1,41=700000,71=1/1,2,3;
 4/35=1/1;
 5/5=2,35=1,38=5/2;
 6/7=2,8=2,9=2,10=2,28=1/1;
 7//1,2,3,16;
 1/14=-1,18=20,19=15,26=1/3(2);
 2/9=110/2;
 99//99;
 2/9=110/2;
 3/5=2,16=1,25=1,41=700000,71=1,135=20/1,2,3;
 4/5=5,16=3,35=1/1;
 5/5=2,35=1,38=5/2;
 7//1,2,3,16;
 1/14=-1,18=20,19=15,26=1/3(-5);
 2/9=110/2;
 6/7=2,8=2,9=2,10=2,19=2,28=1/1;
 99/9=1/99;
 -----
 Title
 -----
 Symbolic Z-matrix:
 Charge =  0 Multiplicity = 1
 C
 C                    1    B1
 H                    1    B2       2    A2
 H                    1    B3       2    A3       3    D3       0
 H                    1    B4       2    A4       3    D4       0
 C                    2    B5       1    A5       3    D5       0
 H                    2    B6       1    A6       3    D6       0
 H                    6    B7       2    A7       1    D7       0
 H                    6    B8       2    A8       1    D8       0
       Variables:
  B1                    1.49293                  
  B2                    1.09424                  
  A2                  110.83176                  
  B3                    1.09473                  
  A3                  109.88083                  
  D3                  240.92157                  
  B4                    1.09436                  
  A4                  111.02528                  
  D4                  121.83324                  
  B5                    1.33845                  
  A5                  123.36176                  
  D5                  295.41885                  
  B6                    1.08757                  
  A6                  117.30036                  
  D6                  115.48785                  
  B7                    1.08576                  
  A7                  121.56871                  
  D7                    0.21139                  
  B8                    1.08569                  
  A8                  120.83049                  
  D8                  180.02814                  
 

 GradGradGradGradGradGradGradGradGradGradGradGradGradGradGradGradGradGrad
 Berny optimization.
 Initialization pass.
                           ----------------------------
                           !    Initial Parameters    !
                           ! (Angstroms and Degrees)  !
 --------------------------                            --------------------------
 ! Name  Definition              Value          Derivative Info.                !
 --------------------------------------------------------------------------------
 ! R1    R(1,2)                  1.4929         estimate D2E/DX2                !
 ! R2    R(1,3)                  1.0942         estimate D2E/DX2                !
 ! R3    R(1,4)                  1.0947         estimate D2E/DX2                !
 ! R4    R(1,5)                  1.0944         estimate D2E/DX2                !
 ! R5    R(2,6)                  1.3384         estimate D2E/DX2                !
 ! R6    R(2,7)                  1.0876         estimate D2E/DX2                !
 ! R7    R(6,8)                  1.0858         estimate D2E/DX2                !
 ! R8    R(6,9)                  1.0857         estimate D2E/DX2                !
 ! A1    A(2,1,3)              110.8318         estimate D2E/DX2                !
 ! A2    A(2,1,4)              109.8808         estimate D2E/DX2                !
 ! A3    A(2,1,5)              111.0253         estimate D2E/DX2                !
 ! A4    A(3,1,4)              107.8321         estimate D2E/DX2                !
 ! A5    A(3,1,5)              109.424          estimate D2E/DX2                !
 ! A6    A(4,1,5)              107.7423         estimate D2E/DX2                !
 ! A7    A(1,2,6)              123.3618         estimate D2E/DX2                !
 ! A8    A(1,2,7)              117.3004         estimate D2E/DX2                !
 ! A9    A(6,2,7)              119.3378         estimate D2E/DX2                !
 ! A10   A(2,6,8)              121.5687         estimate D2E/DX2                !
 ! A11   A(2,6,9)              120.8305         estimate D2E/DX2                !
 ! A12   A(8,6,9)              117.6006         estimate D2E/DX2                !
 ! D1    D(3,1,2,6)            -64.5811         estimate D2E/DX2                !
 ! D2    D(3,1,2,7)            115.4878         estimate D2E/DX2                !
 ! D3    D(4,1,2,6)            176.3404         estimate D2E/DX2                !
 ! D4    D(4,1,2,7)             -3.5906         estimate D2E/DX2                !
 ! D5    D(5,1,2,6)             57.2521         estimate D2E/DX2                !
 ! D6    D(5,1,2,7)           -122.6789         estimate D2E/DX2                !
 ! D7    D(1,2,6,8)              0.2114         estimate D2E/DX2                !
 ! D8    D(1,2,6,9)           -179.9719         estimate D2E/DX2                !
 ! D9    D(7,2,6,8)           -179.8589         estimate D2E/DX2                !
 ! D10   D(7,2,6,9)             -0.0422         estimate D2E/DX2                !
 --------------------------------------------------------------------------------
 Trust Radius=3.00D-01 FncErr=1.00D-07 GrdErr=1.00D-07
 Number of steps in this run=     40 maximum allowed number of steps=    100.
 GradGradGradGradGradGradGradGradGradGradGradGradGradGradGradGradGradGrad

                          Input orientation:                          
 ---------------------------------------------------------------------
 Center     Atomic      Atomic             Coordinates (Angstroms)
 Number     Number       Type             X           Y           Z
 ---------------------------------------------------------------------
      1          6           0        0.000000    0.000000    0.000000
      2          6           0        0.000000    0.000000    1.492930
      3          1           0        1.022708    0.000000   -0.389139
      4          1           0       -0.500337    0.899725   -0.372279
      5          1           0       -0.538789   -0.867853   -0.392634
      6          6           0        0.479836   -1.009675    2.228975
      7          1           0       -0.415874    0.872374    1.991750
      8          1           0        0.905057   -1.896476    1.768924
      9          1           0        0.458841   -0.966564    3.313606
 ---------------------------------------------------------------------
                    Distance matrix (angstroms):
                    1          2          3          4          5
     1  C    0.000000
     2  C    1.492930   0.000000
     3  H    1.094240   2.141989   0.000000
     4  H    1.094730   2.130457   1.769027   0.000000
     5  H    1.094360   2.144485   1.786464   1.768113   0.000000
     6  C    2.493595   1.338450   2.858090   3.372398   2.816122
     7  H    2.213832   1.087570   2.915336   2.365695   2.954452
     8  H    2.746788   2.119415   2.875361   3.791915   2.795548
     9  H    3.482063   2.111786   3.868141   4.241321   3.839430
                    6          7          8          9
     6  C    0.000000
     7  H    2.097780   0.000000
     8  H    1.085760   3.075880   0.000000
     9  H    1.085690   2.427782   1.857386   0.000000
 Stoichiometry    C3H6
 Framework group  C1[X(C3H6)]
 Deg. of freedom    21
 Full point group                 C1      NOp   1
 Largest Abelian subgroup         C1      NOp   1
 Largest concise Abelian subgroup C1      NOp   1
                         Standard orientation:                         
 ---------------------------------------------------------------------
 Center     Atomic      Atomic             Coordinates (Angstroms)
 Number     Number       Type             X           Y           Z
 ---------------------------------------------------------------------
      1          6           0        1.222373   -0.168169    0.000101
      2          6           0       -0.127631    0.469271    0.000234
      3          1           0        1.386653   -0.731834    0.923494
      4          1           0        1.997690    0.601948   -0.064997
      5          1           0        1.341646   -0.834965   -0.859423
      6          6           0       -1.270520   -0.227330   -0.000403
      7          1           0       -0.166057    1.556162   -0.000278
      8          1           0       -1.274428   -1.313080    0.002351
      9          1           0       -2.230840    0.279136   -0.000734
 ---------------------------------------------------------------------
 Rotational constants (GHZ):     45.6550773      9.4404544      8.2327384
 Standard basis: VSTO-6G (5D, 7F)
 There are    18 symmetry adapted cartesian basis functions of A   symmetry.
 There are    18 symmetry adapted basis functions of A   symmetry.
    18 basis functions,   108 primitive gaussians,    18 cartesian basis functions
     9 alpha electrons        9 beta electrons
       nuclear repulsion energy        51.0057898748 Hartrees.
 Integral buffers will be    131072 words long.
 Regular integral format.
 Two-electron integral symmetry is turned off.
 Do NDO integrals.
 One-electron integrals computed using PRISM.
 NBasis=    18 RedAO= F EigKep=  0.00D+00  NBF=    18
 NBsUse=    18 1.00D-04 EigRej=  0.00D+00 NBFU=    18
 Simple Huckel Guess.
 Overlap will be assumed to be unity.
 Keep J ints in memory in canonical form, NReq=886606.
 Requested convergence on RMS density matrix=1.00D-08 within 128 cycles.
 Requested convergence on MAX density matrix=1.00D-06.
 Requested convergence on             energy=1.00D-06.
 No special actions if energy rises.
 SCF Done:  E(RAM1) =  0.132148323065E-01 A.U. after   12 cycles
            NFock= 11  Conv=0.20D-08     -V/T= 1.0012

 **********************************************************************

            Population analysis using the SCF density.

 **********************************************************************

 Orbital symmetries:
       Occupied  (A) (A) (A) (A) (A) (A) (A) (A) (A)
       Virtual   (A) (A) (A) (A) (A) (A) (A) (A) (A)
 The electronic state is 1-A.
 Alpha  occ. eigenvalues --   -1.28884  -1.03025  -0.75769  -0.58715  -0.52936
 Alpha  occ. eigenvalues --   -0.52005  -0.46457  -0.43803  -0.36744
 Alpha virt. eigenvalues --    0.04869   0.14919   0.15863   0.16834   0.17319
 Alpha virt. eigenvalues --    0.18527   0.18797   0.21016   0.21548
          Condensed to atoms (all electrons):
               1          2          3          4          5          6
     1  C    4.184641   0.000000   0.000000   0.000000   0.000000   0.000000
     2  C    0.000000   4.164656   0.000000   0.000000   0.000000   0.000000
     3  H    0.000000   0.000000   0.917394   0.000000   0.000000   0.000000
     4  H    0.000000   0.000000   0.000000   0.926687   0.000000   0.000000
     5  H    0.000000   0.000000   0.000000   0.000000   0.918051   0.000000
     6  C    0.000000   0.000000   0.000000   0.000000   0.000000   4.227546
     7  H    0.000000   0.000000   0.000000   0.000000   0.000000   0.000000
     8  H    0.000000   0.000000   0.000000   0.000000   0.000000   0.000000
     9  H    0.000000   0.000000   0.000000   0.000000   0.000000   0.000000
               7          8          9
     1  C    0.000000   0.000000   0.000000
     2  C    0.000000   0.000000   0.000000
     3  H    0.000000   0.000000   0.000000
     4  H    0.000000   0.000000   0.000000
     5  H    0.000000   0.000000   0.000000
     6  C    0.000000   0.000000   0.000000
     7  H    0.882995   0.000000   0.000000
     8  H    0.000000   0.889283   0.000000
     9  H    0.000000   0.000000   0.888746
 Mulliken charges:
               1
     1  C   -0.184641
     2  C   -0.164656
     3  H    0.082606
     4  H    0.073313
     5  H    0.081949
     6  C   -0.227546
     7  H    0.117005
     8  H    0.110717
     9  H    0.111254
 Sum of Mulliken charges =   0.00000
 Mulliken charges with hydrogens summed into heavy atoms:
               1
     1  C    0.053226
     2  C   -0.047651
     6  C   -0.005576
 Charge=              0.0000 electrons
 Dipole moment (field-independent basis, Debye):
    X=              0.2076    Y=             -0.0260    Z=              0.0066  Tot=              0.2094
 N-N= 5.100578987481D+01 E-N=-7.909701673689D+01  KE=-1.092137908194D+01
 Calling FoFJK, ICntrl=      2127 FMM=F ISym2X=0 I1Cent= 0 IOpClX= 0 NMat=1 NMatS=1 NMatT=0.
 ***** Axes restored to original set *****
 -------------------------------------------------------------------
 Center     Atomic                   Forces (Hartrees/Bohr)
 Number     Number              X              Y              Z
 -------------------------------------------------------------------
      1        6          -0.002591841    0.004407806    0.026614312
      2        6           0.007163898   -0.015446177   -0.007324275
      3        1           0.016067738   -0.001753243   -0.004902385
      4        1          -0.007879533    0.014321021   -0.005860405
      5        1          -0.006744370   -0.014551094   -0.004820384
      6        6          -0.006295437    0.013842332   -0.012081689
      7        1          -0.004370502    0.009327764    0.001018289
      8        1           0.003482852   -0.007650823   -0.000795882
      9        1           0.001167194   -0.002497586    0.008152419
 -------------------------------------------------------------------
 Cartesian Forces:  Max     0.026614312 RMS     0.009765765

 GradGradGradGradGradGradGradGradGradGradGradGradGradGradGradGradGradGrad
 Berny optimization.
 FormGI is forming the generalized inverse of G from B-inverse, IUseBI=4.
 Internal  Forces:  Max     0.017364198 RMS     0.006606231
 Search for a local minimum.
 Step number   1 out of a maximum of   40
 All quantities printed in internal units (Hartrees-Bohrs-Radians)
 Mixed Optimization -- RFO/linear search
 Second derivative matrix not updated -- first step.
 ITU=  0
     Eigenvalues ---    0.00859   0.01696   0.02903   0.02903   0.07262
     Eigenvalues ---    0.07479   0.16000   0.16000   0.16000   0.16000
     Eigenvalues ---    0.16000   0.16000   0.22000   0.33131   0.34272
     Eigenvalues ---    0.34314   0.34327   0.35095   0.35307   0.35316
     Eigenvalues ---    0.57554
 RFO step:  Lambda=-4.04194377D-03 EMin= 8.59469985D-03
 Linear search not attempted -- first point.
 Iteration  1 RMS(Cart)=  0.02403586 RMS(Int)=  0.00026454
 Iteration  2 RMS(Cart)=  0.00030775 RMS(Int)=  0.00009220
 Iteration  3 RMS(Cart)=  0.00000011 RMS(Int)=  0.00009220
 Variable       Old X    -DE/DX   Delta X   Delta X   Delta X     New X
                                 (Linear)    (Quad)   (Total)
    R1        2.82123  -0.01103   0.00000  -0.03289  -0.03289   2.78833
    R2        2.06781   0.01676   0.00000   0.04826   0.04826   2.11607
    R3        2.06874   0.01736   0.00000   0.05008   0.05008   2.11882
    R4        2.06804   0.01659   0.00000   0.04778   0.04778   2.11582
    R5        2.52930  -0.00597   0.00000  -0.01031  -0.01031   2.51899
    R6        2.05521   0.00962   0.00000   0.02710   0.02710   2.08231
    R7        2.05179   0.00795   0.00000   0.02226   0.02226   2.07405
    R8        2.05166   0.00802   0.00000   0.02246   0.02246   2.07412
    A1        1.93438  -0.00175   0.00000  -0.01374  -0.01390   1.92048
    A2        1.91778   0.00123   0.00000   0.01319   0.01321   1.93100
    A3        1.93776  -0.00184   0.00000  -0.01393  -0.01409   1.92366
    A4        1.88202   0.00121   0.00000   0.01261   0.01263   1.89466
    A5        1.90981  -0.00003   0.00000  -0.01077  -0.01110   1.89871
    A6        1.88046   0.00136   0.00000   0.01416   0.01418   1.89464
    A7        2.15307  -0.00066   0.00000  -0.00296  -0.00296   2.15011
    A8        2.04728  -0.00359   0.00000  -0.02245  -0.02245   2.02483
    A9        2.08284   0.00426   0.00000   0.02541   0.02541   2.10825
   A10        2.12177   0.00176   0.00000   0.01071   0.01071   2.13248
   A11        2.10889   0.00232   0.00000   0.01413   0.01412   2.12301
   A12        2.05252  -0.00407   0.00000  -0.02482  -0.02483   2.02769
    D1       -1.12715   0.00122   0.00000   0.01441   0.01425  -1.11291
    D2        2.01564   0.00117   0.00000   0.01182   0.01169   2.02733
    D3        3.07772   0.00004   0.00000  -0.00102  -0.00104   3.07668
    D4       -0.06267  -0.00002   0.00000  -0.00361  -0.00360  -0.06626
    D5        0.99924  -0.00129   0.00000  -0.01832  -0.01818   0.98105
    D6       -2.14115  -0.00134   0.00000  -0.02090  -0.02074  -2.16189
    D7        0.00369  -0.00017   0.00000  -0.00564  -0.00566  -0.00197
    D8       -3.14110  -0.00001   0.00000  -0.00073  -0.00075   3.14133
    D9       -3.13913  -0.00012   0.00000  -0.00303  -0.00301   3.14104
   D10       -0.00074   0.00004   0.00000   0.00187   0.00189   0.00115
         Item               Value     Threshold  Converged?
 Maximum Force            0.017364     0.000450     NO 
 RMS     Force            0.006606     0.000300     NO 
 Maximum Displacement     0.053254     0.001800     NO 
 RMS     Displacement     0.024161     0.001200     NO 
 Predicted change in Energy=-2.048522D-03
 GradGradGradGradGradGradGradGradGradGradGradGradGradGradGradGradGradGrad

                          Input orientation:                          
 ---------------------------------------------------------------------
 Center     Atomic      Atomic             Coordinates (Angstroms)
 Number     Number       Type             X           Y           Z
 ---------------------------------------------------------------------
      1          6           0       -0.003611    0.006072    0.014027
      2          6           0       -0.001755    0.002882    1.489545
      3          1           0        1.047818   -0.007324   -0.370965
      4          1           0       -0.515673    0.923046   -0.378538
      5          1           0       -0.541293   -0.896034   -0.374187
      6          6           0        0.478699   -1.005862    2.216507
      7          1           0       -0.425636    0.896510    1.975305
      8          1           0        0.905376   -1.906478    1.756689
      9          1           0        0.467518   -0.981282    3.313750
 ---------------------------------------------------------------------
                    Distance matrix (angstroms):
                    1          2          3          4          5
     1  C    0.000000
     2  C    1.475523   0.000000
     3  H    1.119777   2.136166   0.000000
     4  H    1.121229   2.144888   1.819381   0.000000
     5  H    1.119646   2.138375   1.820738   1.819265   0.000000
     6  C    2.471346   1.332995   2.831252   3.382856   2.786421
     7  H    2.194902   1.101911   2.914269   2.355713   2.957482
     8  H    2.742440   2.130706   2.855519   3.819002   2.766673
     9  H    3.476349   2.125211   3.855187   4.269206   3.824375
                    6          7          8          9
     6  C    0.000000
     7  H    2.120146   0.000000
     8  H    1.097541   3.110647   0.000000
     9  H    1.097575   2.472905   1.863370   0.000000
 Stoichiometry    C3H6
 Framework group  C1[X(C3H6)]
 Deg. of freedom    21
 Full point group                 C1      NOp   1
 Largest Abelian subgroup         C1      NOp   1
 Largest concise Abelian subgroup C1      NOp   1
                         Standard orientation:                         
 ---------------------------------------------------------------------
 Center     Atomic      Atomic             Coordinates (Angstroms)
 Number     Number       Type             X           Y           Z
 ---------------------------------------------------------------------
      1          6           0        1.209421   -0.170530   -0.000018
      2          6           0       -0.120037    0.469556   -0.000504
      3          1           0        1.353408   -0.755115    0.944137
      4          1           0        2.019705    0.601389   -0.068826
      5          1           0        1.304516   -0.865648   -0.872585
      6          6           0       -1.261451   -0.218955    0.000192
      7          1           0       -0.125906    1.571451   -0.000153
      8          1           0       -1.282203   -1.316299   -0.000646
      9          1           0       -2.237113    0.283793    0.000052
 ---------------------------------------------------------------------
 Rotational constants (GHZ):     44.9406248      9.5615879      8.3176821
 Standard basis: VSTO-6G (5D, 7F)
 There are    18 symmetry adapted cartesian basis functions of A   symmetry.
 There are    18 symmetry adapted basis functions of A   symmetry.
    18 basis functions,   108 primitive gaussians,    18 cartesian basis functions
     9 alpha electrons        9 beta electrons
       nuclear repulsion energy        50.9548518198 Hartrees.
 Integral buffers will be    131072 words long.
 Regular integral format.
 Two-electron integral symmetry is turned off.
 Do NDO integrals.
 One-electron integrals computed using PRISM.
 NBasis=    18 RedAO= F EigKep=  0.00D+00  NBF=    18
 NBsUse=    18 1.00D-04 EigRej=  0.00D+00 NBFU=    18
 Initial guess from the checkpoint file:  "/blue/chm6586/le.chen/hw2/homo/Gau-67300.chk"
 B after Tr=     0.000000    0.000000    0.000000
         Rot=    0.999992    0.000522    0.000011    0.004022 Ang=   0.46 deg.
 Overlap will be assumed to be unity.
 Keep J ints in memory in canonical form, NReq=886606.
 Requested convergence on RMS density matrix=1.00D-08 within 128 cycles.
 Requested convergence on MAX density matrix=1.00D-06.
 Requested convergence on             energy=1.00D-06.
 No special actions if energy rises.
 SCF Done:  E(RAM1) =  0.113574316618E-01 A.U. after   10 cycles
            NFock=  9  Conv=0.56D-08     -V/T= 1.0010
 Calling FoFJK, ICntrl=      2127 FMM=F ISym2X=0 I1Cent= 0 IOpClX= 0 NMat=1 NMatS=1 NMatT=0.
 ***** Axes restored to original set *****
 -------------------------------------------------------------------
 Center     Atomic                   Forces (Hartrees/Bohr)
 Number     Number              X              Y              Z
 -------------------------------------------------------------------
      1        6          -0.001494504    0.002551224   -0.000946792
      2        6           0.000958546   -0.001994208    0.002474129
      3        1          -0.001284910   -0.000196259   -0.001054253
      4        1           0.001391397   -0.002490665   -0.000176737
      5        1           0.000984158    0.000977327   -0.001074009
      6        6          -0.001362549    0.002536201   -0.000262491
      7        1          -0.000122371    0.000406386   -0.000028385
      8        1           0.000174512   -0.000356517    0.001335281
      9        1           0.000755723   -0.001433490   -0.000266742
 -------------------------------------------------------------------
 Cartesian Forces:  Max     0.002551224 RMS     0.001331678

 GradGradGradGradGradGradGradGradGradGradGradGradGradGradGradGradGradGrad
 Berny optimization.
 Using GEDIIS/GDIIS optimizer.
 FormGI is forming the generalized inverse of G from B-inverse, IUseBI=4.
 Internal  Forces:  Max     0.003254108 RMS     0.001193421
 Search for a local minimum.
 Step number   2 out of a maximum of   40
 All quantities printed in internal units (Hartrees-Bohrs-Radians)
 Mixed Optimization -- RFO/linear search
 Update second derivatives using D2CorX and points    1    2
 DE= -1.86D-03 DEPred=-2.05D-03 R= 9.07D-01
 TightC=F SS=  1.41D+00  RLast= 1.20D-01 DXNew= 5.0454D-01 3.5926D-01
 Trust test= 9.07D-01 RLast= 1.20D-01 DXMaxT set to 3.59D-01
 ITU=  1  0
 Use linear search instead of GDIIS.
     Eigenvalues ---    0.00859   0.01721   0.02903   0.02903   0.07379
     Eigenvalues ---    0.07414   0.14954   0.16000   0.16000   0.16000
     Eigenvalues ---    0.16000   0.16471   0.21986   0.32882   0.34102
     Eigenvalues ---    0.34320   0.34914   0.35234   0.35311   0.39811
     Eigenvalues ---    0.57439
 RFO step:  Lambda=-1.56001091D-04 EMin= 8.59231557D-03
 Quartic linear search produced a step of -0.06577.
 Iteration  1 RMS(Cart)=  0.00966406 RMS(Int)=  0.00004222
 Iteration  2 RMS(Cart)=  0.00003863 RMS(Int)=  0.00001411
 Iteration  3 RMS(Cart)=  0.00000000 RMS(Int)=  0.00001411
 Variable       Old X    -DE/DX   Delta X   Delta X   Delta X     New X
                                 (Linear)    (Quad)   (Total)
    R1        2.78833   0.00325   0.00216   0.00579   0.00796   2.79629
    R2        2.11607  -0.00084  -0.00317   0.00267  -0.00051   2.11556
    R3        2.11882  -0.00261  -0.00329  -0.00197  -0.00526   2.11355
    R4        2.11582  -0.00089  -0.00314   0.00249  -0.00065   2.11517
    R5        2.51899  -0.00028   0.00068  -0.00152  -0.00084   2.51815
    R6        2.08231   0.00036  -0.00178   0.00375   0.00197   2.08428
    R7        2.07405  -0.00020  -0.00146   0.00176   0.00030   2.07435
    R8        2.07412  -0.00031  -0.00148   0.00150   0.00002   2.07414
    A1        1.92048   0.00147   0.00091   0.00685   0.00775   1.92823
    A2        1.93100   0.00114  -0.00087   0.00837   0.00747   1.93846
    A3        1.92366   0.00157   0.00093   0.00765   0.00855   1.93222
    A4        1.89466  -0.00130  -0.00083  -0.00615  -0.00702   1.88764
    A5        1.89871  -0.00172   0.00073  -0.01199  -0.01126   1.88745
    A6        1.89464  -0.00128  -0.00093  -0.00543  -0.00641   1.88824
    A7        2.15011   0.00175   0.00019   0.00710   0.00730   2.15740
    A8        2.02483  -0.00109   0.00148  -0.00725  -0.00578   2.01905
    A9        2.10825  -0.00065  -0.00167   0.00015  -0.00152   2.10672
   A10        2.13248   0.00079  -0.00070   0.00570   0.00500   2.13748
   A11        2.12301   0.00128  -0.00093   0.00887   0.00794   2.13096
   A12        2.02769  -0.00207   0.00163  -0.01457  -0.01294   2.01475
    D1       -1.11291   0.00005  -0.00094  -0.00164  -0.00256  -1.11547
    D2        2.02733   0.00003  -0.00077  -0.00281  -0.00357   2.02376
    D3        3.07668   0.00000   0.00007  -0.00374  -0.00367   3.07302
    D4       -0.06626  -0.00002   0.00024  -0.00491  -0.00467  -0.07094
    D5        0.98105  -0.00016   0.00120  -0.00731  -0.00613   0.97492
    D6       -2.16189  -0.00017   0.00136  -0.00848  -0.00713  -2.16903
    D7       -0.00197  -0.00001   0.00037  -0.00089  -0.00052  -0.00249
    D8        3.14133  -0.00007   0.00005  -0.00249  -0.00244   3.13889
    D9        3.14104   0.00001   0.00020   0.00034   0.00053   3.14158
   D10        0.00115  -0.00005  -0.00012  -0.00126  -0.00138  -0.00023
         Item               Value     Threshold  Converged?
 Maximum Force            0.003254     0.000450     NO 
 RMS     Force            0.001193     0.000300     NO 
 Maximum Displacement     0.026678     0.001800     NO 
 RMS     Displacement     0.009671     0.001200     NO 
 Predicted change in Energy=-8.748259D-05
 GradGradGradGradGradGradGradGradGradGradGradGradGradGradGradGradGradGrad

                          Input orientation:                          
 ---------------------------------------------------------------------
 Center     Atomic      Atomic             Coordinates (Angstroms)
 Number     Number       Type             X           Y           Z
 ---------------------------------------------------------------------
      1          6           0       -0.005157    0.008977    0.012435
      2          6           0       -0.000504    0.000449    1.492137
      3          1           0        1.042280   -0.001640   -0.382612
      4          1           0       -0.517393    0.921329   -0.382716
      5          1           0       -0.537396   -0.891084   -0.386874
      6          6           0        0.477553   -1.006412    2.222466
      7          1           0       -0.422980    0.896697    1.976657
      8          1           0        0.904210   -1.911347    1.770806
      9          1           0        0.470829   -0.985438    3.319831
 ---------------------------------------------------------------------
                    Distance matrix (angstroms):
                    1          2          3          4          5
     1  C    0.000000
     2  C    1.479734   0.000000
     3  H    1.119509   2.145247   0.000000
     4  H    1.118444   2.151806   1.812306   0.000000
     5  H    1.119301   2.147968   1.812872   1.812529   0.000000
     6  C    2.479568   1.332549   2.848668   3.390144   2.802155
     7  H    2.195630   1.102953   2.918929   2.361390   2.965726
     8  H    2.757981   2.133337   2.881536   3.831796   2.788323
     9  H    3.486300   2.129458   3.873305   4.280326   3.842535
                    6          7          8          9
     6  C    0.000000
     7  H    2.119718   0.000000
     8  H    1.097697   3.112703   0.000000
     9  H    1.097586   2.479000   1.855964   0.000000
 Stoichiometry    C3H6
 Framework group  C1[X(C3H6)]
 Deg. of freedom    21
 Full point group                 C1      NOp   1
 Largest Abelian subgroup         C1      NOp   1
 Largest concise Abelian subgroup C1      NOp   1
                         Standard orientation:                         
 ---------------------------------------------------------------------
 Center     Atomic      Atomic             Coordinates (Angstroms)
 Number     Number       Type             X           Y           Z
 ---------------------------------------------------------------------
      1          6           0        1.213667   -0.168094   -0.000011
      2          6           0       -0.122657    0.467398   -0.000904
      3          1           0        1.369303   -0.751524    0.942690
      4          1           0        2.023895    0.599490   -0.072555
      5          1           0        1.318760   -0.869902   -0.865607
      6          6           0       -1.265398   -0.218043    0.000003
      7          1           0       -0.127466    1.570341   -0.000057
      8          1           0       -1.294369   -1.315357   -0.000811
      9          1           0       -2.243796    0.279379    0.001816
 ---------------------------------------------------------------------
 Rotational constants (GHZ):     45.1913826      9.4904453      8.2683265
 Standard basis: VSTO-6G (5D, 7F)
 There are    18 symmetry adapted cartesian basis functions of A   symmetry.
 There are    18 symmetry adapted basis functions of A   symmetry.
    18 basis functions,   108 primitive gaussians,    18 cartesian basis functions
     9 alpha electrons        9 beta electrons
       nuclear repulsion energy        50.9127925708 Hartrees.
 Integral buffers will be    131072 words long.
 Regular integral format.
 Two-electron integral symmetry is turned off.
 Do NDO integrals.
 One-electron integrals computed using PRISM.
 NBasis=    18 RedAO= F EigKep=  0.00D+00  NBF=    18
 NBsUse=    18 1.00D-04 EigRej=  0.00D+00 NBFU=    18
 Initial guess from the checkpoint file:  "/blue/chm6586/le.chen/hw2/homo/Gau-67300.chk"
 B after Tr=     0.000000    0.000000    0.000000
         Rot=    1.000000    0.000770   -0.000068   -0.000410 Ang=   0.10 deg.
 Overlap will be assumed to be unity.
 Keep J ints in memory in canonical form, NReq=886606.
 Requested convergence on RMS density matrix=1.00D-08 within 128 cycles.
 Requested convergence on MAX density matrix=1.00D-06.
 Requested convergence on             energy=1.00D-06.
 No special actions if energy rises.
 SCF Done:  E(RAM1) =  0.112652405403E-01 A.U. after    9 cycles
            NFock=  8  Conv=0.80D-08     -V/T= 1.0010
 Calling FoFJK, ICntrl=      2127 FMM=F ISym2X=0 I1Cent= 0 IOpClX= 0 NMat=1 NMatS=1 NMatT=0.
 ***** Axes restored to original set *****
 -------------------------------------------------------------------
 Center     Atomic                   Forces (Hartrees/Bohr)
 Number     Number              X              Y              Z
 -------------------------------------------------------------------
      1        6          -0.000351031    0.000466467    0.001343425
      2        6           0.000474005   -0.000904121   -0.001059596
      3        1          -0.000487773   -0.000069114    0.000117597
      4        1           0.000349849   -0.000695878    0.000431953
      5        1           0.000428032    0.000366662    0.000114575
      6        6          -0.000759999    0.001562499   -0.000941196
      7        1           0.000106245   -0.000112506   -0.000293763
      8        1           0.000023000   -0.000122845    0.000538400
      9        1           0.000217672   -0.000491163   -0.000251394
 -------------------------------------------------------------------
 Cartesian Forces:  Max     0.001562499 RMS     0.000619540

 GradGradGradGradGradGradGradGradGradGradGradGradGradGradGradGradGradGrad
 Berny optimization.
 Using GEDIIS/GDIIS optimizer.
 FormGI is forming the generalized inverse of G from B-inverse, IUseBI=4.
 Internal  Forces:  Max     0.002006923 RMS     0.000522442
 Search for a local minimum.
 Step number   3 out of a maximum of   40
 All quantities printed in internal units (Hartrees-Bohrs-Radians)
 Mixed Optimization -- En-DIIS/RFO-DIIS
 Update second derivatives using D2CorX and points    1    2    3
 DE= -9.22D-05 DEPred=-8.75D-05 R= 1.05D+00
 TightC=F SS=  1.41D+00  RLast= 3.16D-02 DXNew= 6.0421D-01 9.4791D-02
 Trust test= 1.05D+00 RLast= 3.16D-02 DXMaxT set to 3.59D-01
 ITU=  1  1  0
 Use linear search instead of GDIIS.
     Eigenvalues ---    0.00844   0.01724   0.02901   0.02906   0.07188
     Eigenvalues ---    0.07320   0.11316   0.16000   0.16000   0.16000
     Eigenvalues ---    0.16029   0.16880   0.21628   0.33794   0.34320
     Eigenvalues ---    0.34772   0.35202   0.35306   0.36143   0.45150
     Eigenvalues ---    0.59307
 RFO step:  Lambda=-3.08299619D-05 EMin= 8.43957730D-03
 Quartic linear search produced a step of  0.06193.
 Iteration  1 RMS(Cart)=  0.00443733 RMS(Int)=  0.00001236
 Iteration  2 RMS(Cart)=  0.00001248 RMS(Int)=  0.00000134
 Iteration  3 RMS(Cart)=  0.00000000 RMS(Int)=  0.00000134
 Variable       Old X    -DE/DX   Delta X   Delta X   Delta X     New X
                                 (Linear)    (Quad)   (Total)
    R1        2.79629  -0.00201   0.00049  -0.00579  -0.00529   2.79100
    R2        2.11556  -0.00050  -0.00003  -0.00114  -0.00118   2.11439
    R3        2.11355  -0.00088  -0.00033  -0.00292  -0.00325   2.11030
    R4        2.11517  -0.00054  -0.00004  -0.00130  -0.00134   2.11383
    R5        2.51815  -0.00126  -0.00005  -0.00255  -0.00260   2.51555
    R6        2.08428  -0.00026   0.00012  -0.00028  -0.00016   2.08412
    R7        2.07435  -0.00011   0.00002  -0.00008  -0.00007   2.07428
    R8        2.07414  -0.00026   0.00000  -0.00057  -0.00057   2.07357
    A1        1.92823   0.00008   0.00048   0.00127   0.00175   1.92998
    A2        1.93846  -0.00020   0.00046  -0.00009   0.00037   1.93884
    A3        1.93222   0.00013   0.00053   0.00176   0.00229   1.93451
    A4        1.88764   0.00007  -0.00043  -0.00022  -0.00065   1.88699
    A5        1.88745  -0.00016  -0.00070  -0.00293  -0.00363   1.88381
    A6        1.88824   0.00007  -0.00040   0.00006  -0.00034   1.88789
    A7        2.15740   0.00022   0.00045   0.00198   0.00244   2.15984
    A8        2.01905  -0.00032  -0.00036  -0.00287  -0.00323   2.01582
    A9        2.10672   0.00010  -0.00009   0.00089   0.00080   2.10752
   A10        2.13748   0.00038   0.00031   0.00327   0.00358   2.14106
   A11        2.13096   0.00036   0.00049   0.00355   0.00405   2.13500
   A12        2.01475  -0.00074  -0.00080  -0.00682  -0.00762   2.00713
    D1       -1.11547  -0.00003  -0.00016  -0.00606  -0.00621  -1.12168
    D2        2.02376  -0.00001  -0.00022  -0.00544  -0.00566   2.01810
    D3        3.07302  -0.00004  -0.00023  -0.00657  -0.00679   3.06622
    D4       -0.07094  -0.00003  -0.00029  -0.00595  -0.00624  -0.07717
    D5        0.97492  -0.00009  -0.00038  -0.00776  -0.00814   0.96679
    D6       -2.16903  -0.00008  -0.00044  -0.00714  -0.00758  -2.17661
    D7       -0.00249  -0.00002  -0.00003  -0.00078  -0.00081  -0.00330
    D8        3.13889   0.00002  -0.00015   0.00049   0.00033   3.13923
    D9        3.14158  -0.00004   0.00003  -0.00142  -0.00139   3.14019
   D10       -0.00023   0.00000  -0.00009  -0.00016  -0.00024  -0.00047
         Item               Value     Threshold  Converged?
 Maximum Force            0.002007     0.000450     NO 
 RMS     Force            0.000522     0.000300     NO 
 Maximum Displacement     0.009640     0.001800     NO 
 RMS     Displacement     0.004439     0.001200     NO 
 Predicted change in Energy=-1.569725D-05
 GradGradGradGradGradGradGradGradGradGradGradGradGradGradGradGradGradGrad

                          Input orientation:                          
 ---------------------------------------------------------------------
 Center     Atomic      Atomic             Coordinates (Angstroms)
 Number     Number       Type             X           Y           Z
 ---------------------------------------------------------------------
      1          6           0       -0.005351    0.009707    0.013873
      2          6           0        0.001135    0.000239    1.490761
      3          1           0        1.040357    0.003168   -0.384071
      4          1           0       -0.521033    0.918632   -0.379830
      5          1           0       -0.532294   -0.891654   -0.387536
      6          6           0        0.476257   -1.005672    2.221804
      7          1           0       -0.419543    0.898378    1.973144
      8          1           0        0.900474   -1.914149    1.775067
      9          1           0        0.471441   -0.987119    3.318920
 ---------------------------------------------------------------------
                    Distance matrix (angstroms):
                    1          2          3          4          5
     1  C    0.000000
     2  C    1.476933   0.000000
     3  H    1.118887   2.143592   0.000000
     4  H    1.116725   2.148305   1.809980   0.000000
     5  H    1.118593   2.146631   1.809406   1.810337   0.000000
     6  C    2.477479   1.331173   2.850711   3.386153   2.799792
     7  H    2.190899   1.102868   2.913619   2.355249   2.964750
     8  H    2.761077   2.134133   2.890943   3.832611   2.788400
     9  H    3.484872   2.130312   3.875111   4.277575   3.841148
                    6          7          8          9
     6  C    0.000000
     7  H    2.118891   0.000000
     8  H    1.097663   3.113196   0.000000
     9  H    1.097284   2.481948   1.851199   0.000000
 Stoichiometry    C3H6
 Framework group  C1[X(C3H6)]
 Deg. of freedom    21
 Full point group                 C1      NOp   1
 Largest Abelian subgroup         C1      NOp   1
 Largest concise Abelian subgroup C1      NOp   1
                         Standard orientation:                         
 ---------------------------------------------------------------------
 Center     Atomic      Atomic             Coordinates (Angstroms)
 Number     Number       Type             X           Y           Z
 ---------------------------------------------------------------------
      1          6           0        1.212360   -0.167861   -0.000093
      2          6           0       -0.121666    0.465942   -0.000846
      3          1           0        1.372503   -0.746162    0.944274
      4          1           0        2.021125    0.598069   -0.079622
      5          1           0        1.316937   -0.876062   -0.859608
      6          6           0       -1.264643   -0.216425    0.000136
      7          1           0       -0.123311    1.568809   -0.000516
      8          1           0       -1.299810   -1.313523   -0.001450
      9          1           0       -2.243752    0.278928    0.001737
 ---------------------------------------------------------------------
 Rotational constants (GHZ):     45.3575763      9.5019421      8.2808912
 Standard basis: VSTO-6G (5D, 7F)
 There are    18 symmetry adapted cartesian basis functions of A   symmetry.
 There are    18 symmetry adapted basis functions of A   symmetry.
    18 basis functions,   108 primitive gaussians,    18 cartesian basis functions
     9 alpha electrons        9 beta electrons
       nuclear repulsion energy        50.9339758720 Hartrees.
 Integral buffers will be    131072 words long.
 Regular integral format.
 Two-electron integral symmetry is turned off.
 Do NDO integrals.
 One-electron integrals computed using PRISM.
 NBasis=    18 RedAO= F EigKep=  0.00D+00  NBF=    18
 NBsUse=    18 1.00D-04 EigRej=  0.00D+00 NBFU=    18
 Initial guess from the checkpoint file:  "/blue/chm6586/le.chen/hw2/homo/Gau-67300.chk"
 B after Tr=     0.000000    0.000000    0.000000
         Rot=    0.999999    0.001122   -0.000139    0.000352 Ang=   0.14 deg.
 Overlap will be assumed to be unity.
 Keep J ints in memory in canonical form, NReq=886606.
 Requested convergence on RMS density matrix=1.00D-08 within 128 cycles.
 Requested convergence on MAX density matrix=1.00D-06.
 Requested convergence on             energy=1.00D-06.
 No special actions if energy rises.
 SCF Done:  E(RAM1) =  0.112517863060E-01 A.U. after    9 cycles
            NFock=  8  Conv=0.78D-08     -V/T= 1.0010
 Calling FoFJK, ICntrl=      2127 FMM=F ISym2X=0 I1Cent= 0 IOpClX= 0 NMat=1 NMatS=1 NMatT=0.
 ***** Axes restored to original set *****
 -------------------------------------------------------------------
 Center     Atomic                   Forces (Hartrees/Bohr)
 Number     Number              X              Y              Z
 -------------------------------------------------------------------
      1        6           0.000072451   -0.000199730   -0.000606178
      2        6          -0.000181337    0.000369167    0.000087353
      3        1           0.000181501    0.000043449    0.000045548
      4        1          -0.000241820    0.000319820   -0.000038913
      5        1          -0.000025714   -0.000167364    0.000032252
      6        6           0.000049300   -0.000326612    0.000268571
      7        1           0.000086239    0.000037386    0.000126928
      8        1           0.000042359   -0.000069921    0.000013669
      9        1           0.000017021   -0.000006195    0.000070770
 -------------------------------------------------------------------
 Cartesian Forces:  Max     0.000606178 RMS     0.000195947

 GradGradGradGradGradGradGradGradGradGradGradGradGradGradGradGradGradGrad
 Berny optimization.
 Using GEDIIS/GDIIS optimizer.
 FormGI is forming the generalized inverse of G from B-inverse, IUseBI=4.
 Internal  Forces:  Max     0.000567309 RMS     0.000176746
 Search for a local minimum.
 Step number   4 out of a maximum of   40
 All quantities printed in internal units (Hartrees-Bohrs-Radians)
 Mixed Optimization -- En-DIIS/RFO-DIIS
 Swapping is turned off.
 Update second derivatives using D2CorX and points    1    2    3    4
 DE= -1.35D-05 DEPred=-1.57D-05 R= 8.57D-01
 TightC=F SS=  1.41D+00  RLast= 2.14D-02 DXNew= 6.0421D-01 6.4160D-02
 Trust test= 8.57D-01 RLast= 2.14D-02 DXMaxT set to 3.59D-01
 ITU=  1  1  1  0
     Eigenvalues ---    0.00734   0.01727   0.02900   0.02907   0.07169
     Eigenvalues ---    0.07310   0.11576   0.16000   0.16000   0.16014
     Eigenvalues ---    0.16144   0.17461   0.21478   0.34196   0.34320
     Eigenvalues ---    0.34927   0.35217   0.35307   0.38143   0.46063
     Eigenvalues ---    0.65258
 En-DIIS/RFO-DIIS IScMMF=        0 using points:     4    3
 RFO step:  Lambda=-1.47969119D-06.
 DidBck=F Rises=F RFO-DIIS coefs:    0.87309    0.12691
 Iteration  1 RMS(Cart)=  0.00300701 RMS(Int)=  0.00000468
 Iteration  2 RMS(Cart)=  0.00000507 RMS(Int)=  0.00000004
 Iteration  3 RMS(Cart)=  0.00000000 RMS(Int)=  0.00000004
 Variable       Old X    -DE/DX   Delta X   Delta X   Delta X     New X
                                 (Linear)    (Quad)   (Total)
    R1        2.79100   0.00057   0.00067   0.00029   0.00096   2.79196
    R2        2.11439   0.00015   0.00015   0.00012   0.00027   2.11466
    R3        2.11030   0.00039   0.00041   0.00029   0.00070   2.11100
    R4        2.11383   0.00014   0.00017   0.00004   0.00021   2.11405
    R5        2.51555   0.00054   0.00033   0.00025   0.00058   2.51614
    R6        2.08412   0.00005   0.00002   0.00008   0.00010   2.08422
    R7        2.07428   0.00007   0.00001   0.00015   0.00016   2.07444
    R8        2.07357   0.00007   0.00007   0.00004   0.00012   2.07368
    A1        1.92998  -0.00012  -0.00022  -0.00031  -0.00054   1.92944
    A2        1.93884  -0.00010  -0.00005  -0.00053  -0.00058   1.93826
    A3        1.93451  -0.00008  -0.00029   0.00003  -0.00026   1.93425
    A4        1.88699   0.00011   0.00008   0.00050   0.00059   1.88757
    A5        1.88381   0.00010   0.00046  -0.00023   0.00023   1.88404
    A6        1.88789   0.00010   0.00004   0.00057   0.00062   1.88851
    A7        2.15984   0.00008  -0.00031   0.00082   0.00051   2.16035
    A8        2.01582   0.00008   0.00041  -0.00017   0.00024   2.01606
    A9        2.10752  -0.00016  -0.00010  -0.00064  -0.00075   2.10678
   A10        2.14106   0.00005  -0.00045   0.00105   0.00060   2.14166
   A11        2.13500  -0.00001  -0.00051   0.00078   0.00027   2.13527
   A12        2.00713  -0.00004   0.00097  -0.00183  -0.00087   2.00626
    D1       -1.12168  -0.00005   0.00079  -0.00651  -0.00573  -1.12741
    D2        2.01810  -0.00006   0.00072  -0.00682  -0.00610   2.01200
    D3        3.06622  -0.00004   0.00086  -0.00659  -0.00573   3.06049
    D4       -0.07717  -0.00005   0.00079  -0.00690  -0.00611  -0.08328
    D5        0.96679  -0.00005   0.00103  -0.00699  -0.00595   0.96083
    D6       -2.17661  -0.00006   0.00096  -0.00729  -0.00633  -2.18294
    D7       -0.00330   0.00000   0.00010  -0.00017  -0.00007  -0.00337
    D8        3.13923  -0.00002  -0.00004  -0.00047  -0.00052   3.13871
    D9        3.14019   0.00001   0.00018   0.00015   0.00032   3.14051
   D10       -0.00047  -0.00001   0.00003  -0.00015  -0.00012  -0.00059
         Item               Value     Threshold  Converged?
 Maximum Force            0.000567     0.000450     NO 
 RMS     Force            0.000177     0.000300     YES
 Maximum Displacement     0.007601     0.001800     NO 
 RMS     Displacement     0.003007     0.001200     NO 
 Predicted change in Energy=-1.834972D-06
 GradGradGradGradGradGradGradGradGradGradGradGradGradGradGradGradGradGrad

                          Input orientation:                          
 ---------------------------------------------------------------------
 Center     Atomic      Atomic             Coordinates (Angstroms)
 Number     Number       Type             X           Y           Z
 ---------------------------------------------------------------------
      1          6           0       -0.005315    0.009941    0.013128
      2          6           0        0.001948    0.000520    1.490523
      3          1           0        1.040558    0.007191   -0.384831
      4          1           0       -0.524781    0.917474   -0.379859
      5          1           0       -0.529076   -0.893636   -0.387776
      6          6           0        0.475312   -1.006248    2.222090
      7          1           0       -0.416221    0.899656    1.973350
      8          1           0        0.897572   -1.916173    1.776244
      9          1           0        0.471444   -0.987194    3.319262
 ---------------------------------------------------------------------
                    Distance matrix (angstroms):
                    1          2          3          4          5
     1  C    0.000000
     2  C    1.477443   0.000000
     3  H    1.119030   2.143760   0.000000
     4  H    1.117095   2.148622   1.810781   0.000000
     5  H    1.118705   2.146977   1.809764   1.811132   0.000000
     6  C    2.478538   1.331481   2.853523   3.386890   2.798728
     7  H    2.191554   1.102920   2.911995   2.355779   2.967077
     8  H    2.762914   2.134827   2.896552   3.834243   2.786376
     9  H    3.485986   2.130796   3.877241   4.278285   3.840824
                    6          7          8          9
     6  C    0.000000
     7  H    2.118766   0.000000
     8  H    1.097746   3.113485   0.000000
     9  H    1.097345   2.481860   1.850809   0.000000
 Stoichiometry    C3H6
 Framework group  C1[X(C3H6)]
 Deg. of freedom    21
 Full point group                 C1      NOp   1
 Largest Abelian subgroup         C1      NOp   1
 Largest concise Abelian subgroup C1      NOp   1
                         Standard orientation:                         
 ---------------------------------------------------------------------
 Center     Atomic      Atomic             Coordinates (Angstroms)
 Number     Number       Type             X           Y           Z
 ---------------------------------------------------------------------
      1          6           0        1.212982   -0.167973   -0.000083
      2          6           0       -0.121611    0.465824   -0.000951
      3          1           0        1.374991   -0.741154    0.947253
      4          1           0        2.021244    0.598373   -0.085681
      5          1           0        1.315252   -0.880883   -0.856120
      6          6           0       -1.265085   -0.216311    0.000082
      7          1           0       -0.123703    1.568742   -0.000379
      8          1           0       -1.301288   -1.313459   -0.001436
      9          1           0       -2.244211    0.279141    0.002072
 ---------------------------------------------------------------------
 Rotational constants (GHZ):     45.3560778      9.4946161      8.2754555
 Standard basis: VSTO-6G (5D, 7F)
 There are    18 symmetry adapted cartesian basis functions of A   symmetry.
 There are    18 symmetry adapted basis functions of A   symmetry.
    18 basis functions,   108 primitive gaussians,    18 cartesian basis functions
     9 alpha electrons        9 beta electrons
       nuclear repulsion energy        50.9275518820 Hartrees.
 Integral buffers will be    131072 words long.
 Regular integral format.
 Two-electron integral symmetry is turned off.
 Do NDO integrals.
 One-electron integrals computed using PRISM.
 NBasis=    18 RedAO= F EigKep=  0.00D+00  NBF=    18
 NBsUse=    18 1.00D-04 EigRej=  0.00D+00 NBFU=    18
 Initial guess from the checkpoint file:  "/blue/chm6586/le.chen/hw2/homo/Gau-67300.chk"
 B after Tr=     0.000000    0.000000    0.000000
         Rot=    1.000000    0.000948   -0.000110    0.000025 Ang=   0.11 deg.
 Overlap will be assumed to be unity.
 Keep J ints in memory in canonical form, NReq=886606.
 Requested convergence on RMS density matrix=1.00D-08 within 128 cycles.
 Requested convergence on MAX density matrix=1.00D-06.
 Requested convergence on             energy=1.00D-06.
 No special actions if energy rises.
 SCF Done:  E(RAM1) =  0.112488304214E-01 A.U. after    9 cycles
            NFock=  8  Conv=0.40D-08     -V/T= 1.0010
 Calling FoFJK, ICntrl=      2127 FMM=F ISym2X=0 I1Cent= 0 IOpClX= 0 NMat=1 NMatS=1 NMatT=0.
 ***** Axes restored to original set *****
 -------------------------------------------------------------------
 Center     Atomic                   Forces (Hartrees/Bohr)
 Number     Number              X              Y              Z
 -------------------------------------------------------------------
      1        6           0.000030488   -0.000155099   -0.000158952
      2        6          -0.000011182    0.000051114    0.000040407
      3        1           0.000046318    0.000073373    0.000058232
      4        1          -0.000103534    0.000072638    0.000012369
      5        1           0.000024132   -0.000045968    0.000036741
      6        6          -0.000038541   -0.000076430   -0.000027433
      7        1           0.000090638    0.000017393    0.000049105
      8        1          -0.000013634    0.000012423   -0.000033392
      9        1          -0.000024685    0.000050556    0.000022924
 -------------------------------------------------------------------
 Cartesian Forces:  Max     0.000158952 RMS     0.000063796

 GradGradGradGradGradGradGradGradGradGradGradGradGradGradGradGradGradGrad
 Berny optimization.
 Using GEDIIS/GDIIS optimizer.
 FormGI is forming the generalized inverse of G from B-inverse, IUseBI=4.
 Internal  Forces:  Max     0.000102805 RMS     0.000049429
 Search for a local minimum.
 Step number   5 out of a maximum of   40
 All quantities printed in internal units (Hartrees-Bohrs-Radians)
 Mixed Optimization -- En-DIIS/RFO-DIIS
 Swapping is turned off.
 Update second derivatives using D2CorX and points    1    2    3    4    5
 DE= -2.96D-06 DEPred=-1.83D-06 R= 1.61D+00
 TightC=F SS=  1.41D+00  RLast= 1.49D-02 DXNew= 6.0421D-01 4.4652D-02
 Trust test= 1.61D+00 RLast= 1.49D-02 DXMaxT set to 3.59D-01
 ITU=  1  1  1  1  0
     Eigenvalues ---    0.00172   0.01728   0.02900   0.02921   0.07232
     Eigenvalues ---    0.07328   0.12105   0.15840   0.16000   0.16015
     Eigenvalues ---    0.16148   0.17367   0.21886   0.34136   0.34315
     Eigenvalues ---    0.34949   0.35216   0.35344   0.38353   0.46130
     Eigenvalues ---    0.90051
 En-DIIS/RFO-DIIS IScMMF=        0 using points:     5    4    3
 RFO step:  Lambda=-5.99297605D-07.
 DidBck=F Rises=F RFO-DIIS coefs:    2.69424   -1.65559   -0.03865
 Iteration  1 RMS(Cart)=  0.01668471 RMS(Int)=  0.00014663
 Iteration  2 RMS(Cart)=  0.00015954 RMS(Int)=  0.00000064
 Iteration  3 RMS(Cart)=  0.00000001 RMS(Int)=  0.00000064
 Variable       Old X    -DE/DX   Delta X   Delta X   Delta X     New X
                                 (Linear)    (Quad)   (Total)
    R1        2.79196   0.00005   0.00143   0.00033   0.00176   2.79372
    R2        2.11466   0.00002   0.00041   0.00008   0.00049   2.11516
    R3        2.11100   0.00010   0.00106   0.00026   0.00132   2.11233
    R4        2.11405   0.00001   0.00031  -0.00007   0.00024   2.11428
    R5        2.51614  -0.00004   0.00089  -0.00048   0.00041   2.51654
    R6        2.08422   0.00000   0.00016   0.00016   0.00032   2.08454
    R7        2.07444   0.00000   0.00026   0.00007   0.00034   2.07478
    R8        2.07368   0.00002   0.00017   0.00015   0.00032   2.07400
    A1        1.92944  -0.00008  -0.00084  -0.00093  -0.00178   1.92767
    A2        1.93826  -0.00005  -0.00096  -0.00080  -0.00176   1.93650
    A3        1.93425  -0.00003  -0.00035   0.00038   0.00004   1.93429
    A4        1.88757   0.00006   0.00097   0.00050   0.00147   1.88904
    A5        1.88404   0.00007   0.00025   0.00017   0.00042   1.88446
    A6        1.88851   0.00005   0.00103   0.00074   0.00177   1.89028
    A7        2.16035  -0.00005   0.00096   0.00054   0.00149   2.16184
    A8        2.01606   0.00008   0.00028   0.00043   0.00071   2.01676
    A9        2.10678  -0.00003  -0.00123  -0.00097  -0.00220   2.10458
   A10        2.14166  -0.00001   0.00116   0.00104   0.00219   2.14385
   A11        2.13527  -0.00005   0.00061   0.00048   0.00108   2.13635
   A12        2.00626   0.00006  -0.00176  -0.00151  -0.00328   2.00298
    D1       -1.12741  -0.00007  -0.00994  -0.02302  -0.03296  -1.16038
    D2        2.01200  -0.00007  -0.01056  -0.02342  -0.03399   1.97801
    D3        3.06049  -0.00005  -0.00997  -0.02252  -0.03249   3.02801
    D4       -0.08328  -0.00005  -0.01059  -0.02292  -0.03351  -0.11679
    D5        0.96083  -0.00005  -0.01040  -0.02317  -0.03357   0.92727
    D6       -2.18294  -0.00005  -0.01102  -0.02357  -0.03459  -2.21753
    D7       -0.00337  -0.00001  -0.00015  -0.00097  -0.00112  -0.00449
    D8        3.13871   0.00000  -0.00086  -0.00037  -0.00123   3.13748
    D9        3.14051  -0.00001   0.00050  -0.00055  -0.00005   3.14046
   D10       -0.00059   0.00000  -0.00021   0.00005  -0.00016  -0.00075
         Item               Value     Threshold  Converged?
 Maximum Force            0.000103     0.000450     YES
 RMS     Force            0.000049     0.000300     YES
 Maximum Displacement     0.042239     0.001800     NO 
 RMS     Displacement     0.016687     0.001200     NO 
 Predicted change in Energy=-5.771431D-06
 GradGradGradGradGradGradGradGradGradGradGradGradGradGradGradGradGradGrad

                          Input orientation:                          
 ---------------------------------------------------------------------
 Center     Atomic      Atomic             Coordinates (Angstroms)
 Number     Number       Type             X           Y           Z
 ---------------------------------------------------------------------
      1          6           0       -0.004789    0.010616    0.011354
      2          6           0        0.007016    0.002394    1.489657
      3          1           0        1.040693    0.029543   -0.387924
      4          1           0       -0.544602    0.908180   -0.379090
      5          1           0       -0.510138   -0.904433   -0.387506
      6          6           0        0.470225   -1.008494    2.222429
      7          1           0       -0.397833    0.907140    1.973741
      8          1           0        0.879984   -1.925855    1.779726
      9          1           0        0.470888   -0.987559    3.319745
 ---------------------------------------------------------------------
                    Distance matrix (angstroms):
                    1          2          3          4          5
     1  C    0.000000
     2  C    1.478373   0.000000
     3  H    1.119292   2.143487   0.000000
     4  H    1.117794   2.148707   1.812524   0.000000
     5  H    1.118830   2.147911   1.810356   1.812960   0.000000
     6  C    2.480540   1.331696   2.866513   3.386947   2.789928
     7  H    2.192990   1.103089   2.901206   2.357404   2.978237
     8  H    2.767650   2.136436   2.923716   3.836884   2.769952
     9  H    3.488276   2.131762   3.886641   4.278600   3.835756
                    6          7          8          9
     6  C    0.000000
     7  H    2.117788   0.000000
     8  H    1.097925   3.113891   0.000000
     9  H    1.097516   2.481187   1.849166   0.000000
 Stoichiometry    C3H6
 Framework group  C1[X(C3H6)]
 Deg. of freedom    21
 Full point group                 C1      NOp   1
 Largest Abelian subgroup         C1      NOp   1
 Largest concise Abelian subgroup C1      NOp   1
                         Standard orientation:                         
 ---------------------------------------------------------------------
 Center     Atomic      Atomic             Coordinates (Angstroms)
 Number     Number       Type             X           Y           Z
 ---------------------------------------------------------------------
      1          6           0        1.214308   -0.168211   -0.000109
      2          6           0       -0.121464    0.465269   -0.001312
      3          1           0        1.388330   -0.711964    0.962628
      4          1           0        2.019893    0.597383   -0.119952
      5          1           0        1.304833   -0.907242   -0.835227
      6          6           0       -1.265773   -0.215884    0.000061
      7          1           0       -0.124927    1.568352   -0.000290
      8          1           0       -1.305441   -1.313090   -0.001925
      9          1           0       -2.245114    0.279520    0.002926
 ---------------------------------------------------------------------
 Rotational constants (GHZ):     45.3753652      9.4803961      8.2655875
 Standard basis: VSTO-6G (5D, 7F)
 There are    18 symmetry adapted cartesian basis functions of A   symmetry.
 There are    18 symmetry adapted basis functions of A   symmetry.
    18 basis functions,   108 primitive gaussians,    18 cartesian basis functions
     9 alpha electrons        9 beta electrons
       nuclear repulsion energy        50.9165890981 Hartrees.
 Integral buffers will be    131072 words long.
 Regular integral format.
 Two-electron integral symmetry is turned off.
 Do NDO integrals.
 One-electron integrals computed using PRISM.
 NBasis=    18 RedAO= F EigKep=  0.00D+00  NBF=    18
 NBsUse=    18 1.00D-04 EigRej=  0.00D+00 NBFU=    18
 Initial guess from the checkpoint file:  "/blue/chm6586/le.chen/hw2/homo/Gau-67300.chk"
 B after Tr=     0.000000    0.000000    0.000000
         Rot=    0.999985    0.005385   -0.000626    0.000051 Ang=   0.62 deg.
 Overlap will be assumed to be unity.
 Keep J ints in memory in canonical form, NReq=886606.
 Requested convergence on RMS density matrix=1.00D-08 within 128 cycles.
 Requested convergence on MAX density matrix=1.00D-06.
 Requested convergence on             energy=1.00D-06.
 No special actions if energy rises.
 SCF Done:  E(RAM1) =  0.112382343744E-01 A.U. after   10 cycles
            NFock=  9  Conv=0.48D-08     -V/T= 1.0010
 Calling FoFJK, ICntrl=      2127 FMM=F ISym2X=0 I1Cent= 0 IOpClX= 0 NMat=1 NMatS=1 NMatT=0.
 ***** Axes restored to original set *****
 -------------------------------------------------------------------
 Center     Atomic                   Forces (Hartrees/Bohr)
 Number     Number              X              Y              Z
 -------------------------------------------------------------------
      1        6          -0.000062048   -0.000055741    0.000766004
      2        6           0.000137516   -0.000220295   -0.000159146
      3        1          -0.000192839    0.000164373    0.000050288
      4        1           0.000166866   -0.000414073    0.000043320
      5        1           0.000099267    0.000182194    0.000013964
      6        6          -0.000023906   -0.000128462   -0.000246504
      7        1           0.000115898    0.000016598   -0.000172190
      8        1          -0.000118575    0.000205860   -0.000229640
      9        1          -0.000122178    0.000249546   -0.000066096
 -------------------------------------------------------------------
 Cartesian Forces:  Max     0.000766004 RMS     0.000220234

 GradGradGradGradGradGradGradGradGradGradGradGradGradGradGradGradGradGrad
 Berny optimization.
 Using GEDIIS/GDIIS optimizer.
 FormGI is forming the generalized inverse of G from B-inverse, IUseBI=4.
 Internal  Forces:  Max     0.000874309 RMS     0.000258108
 Search for a local minimum.
 Step number   6 out of a maximum of   40
 All quantities printed in internal units (Hartrees-Bohrs-Radians)
 Mixed Optimization -- En-DIIS/RFO-DIIS
 Swapping is turned off.
 Update second derivatives using D2CorX and points    1    2    3    4    5
                                                      6
 DE= -1.06D-05 DEPred=-5.77D-06 R= 1.84D+00
 TightC=F SS=  1.41D+00  RLast= 8.24D-02 DXNew= 6.0421D-01 2.4716D-01
 Trust test= 1.84D+00 RLast= 8.24D-02 DXMaxT set to 3.59D-01
 ITU=  1  1  1  1  1  0
     Eigenvalues ---    0.00012   0.01725   0.02900   0.02917   0.07275
     Eigenvalues ---    0.07384   0.12822   0.15943   0.16000   0.16013
     Eigenvalues ---    0.16433   0.20359   0.25270   0.34307   0.34353
     Eigenvalues ---    0.35002   0.35224   0.35440   0.39721   0.51968
     Eigenvalues ---    1.61905
 En-DIIS/RFO-DIIS IScMMF=        0 using points:     6    5    4    3
 RFO step:  Lambda=-3.11657350D-06.
 DidBck=F Rises=F RFO-DIIS coefs:    4.50344    0.00000   -2.92465   -0.57879
 Iteration  1 RMS(Cart)=  0.10078188 RMS(Int)=  0.05231307
 Iteration  2 RMS(Cart)=  0.05791257 RMS(Int)=  0.00175785
 Iteration  3 RMS(Cart)=  0.00191244 RMS(Int)=  0.00003627
 Iteration  4 RMS(Cart)=  0.00000184 RMS(Int)=  0.00003625
 Iteration  5 RMS(Cart)=  0.00000000 RMS(Int)=  0.00003625
 Variable       Old X    -DE/DX   Delta X   Delta X   Delta X     New X
                                 (Linear)    (Quad)   (Total)
    R1        2.79372  -0.00087   0.00647   0.00300   0.00947   2.80319
    R2        2.11516  -0.00020   0.00200   0.00065   0.00265   2.11780
    R3        2.11233  -0.00043   0.00520   0.00178   0.00698   2.11931
    R4        2.11428  -0.00020   0.00080  -0.00067   0.00012   2.11441
    R5        2.51654  -0.00064   0.00195  -0.00028   0.00168   2.51822
    R6        2.08454  -0.00010   0.00137   0.00105   0.00243   2.08696
    R7        2.07478  -0.00012   0.00170   0.00098   0.00268   2.07745
    R8        2.07400  -0.00006   0.00121   0.00085   0.00206   2.07606
    A1        1.92767   0.00000  -0.00709  -0.00616  -0.01331   1.91435
    A2        1.93650   0.00012  -0.00798  -0.00573  -0.01376   1.92274
    A3        1.93429   0.00008   0.00055   0.00342   0.00397   1.93826
    A4        1.88904  -0.00011   0.00683   0.00387   0.01058   1.89962
    A5        1.88446   0.00002   0.00018  -0.00069  -0.00052   1.88395
    A6        1.89028  -0.00012   0.00816   0.00565   0.01383   1.90411
    A7        2.16184  -0.00032   0.00841   0.00677   0.01517   2.17701
    A8        2.01676   0.00002   0.00143   0.00038   0.00180   2.01856
    A9        2.10458   0.00031  -0.00986  -0.00716  -0.01703   2.08755
   A10        2.14385  -0.00023   0.01186   0.00992   0.02178   2.16563
   A11        2.13635  -0.00017   0.00707   0.00612   0.01320   2.14955
   A12        2.00298   0.00040  -0.01894  -0.01604  -0.03498   1.96800
    D1       -1.16038  -0.00012  -0.13915  -0.17078  -0.30986  -1.47024
    D2        1.97801  -0.00012  -0.14373  -0.17552  -0.31922   1.65879
    D3        3.02801  -0.00007  -0.13782  -0.16785  -0.30570   2.72231
    D4       -0.11679  -0.00006  -0.14240  -0.17258  -0.31506  -0.43185
    D5        0.92727  -0.00005  -0.14317  -0.17344  -0.31657   0.61069
    D6       -2.21753  -0.00005  -0.14775  -0.17817  -0.32594  -2.54347
    D7       -0.00449  -0.00002  -0.00465  -0.00622  -0.01083  -0.01532
    D8        3.13748   0.00001  -0.00592  -0.00607  -0.01196   3.12553
    D9        3.14046  -0.00002   0.00014  -0.00127  -0.00116   3.13930
   D10       -0.00075   0.00001  -0.00113  -0.00113  -0.00229  -0.00304
         Item               Value     Threshold  Converged?
 Maximum Force            0.000874     0.000450     NO 
 RMS     Force            0.000258     0.000300     YES
 Maximum Displacement     0.393966     0.001800     NO 
 RMS     Displacement     0.156993     0.001200     NO 
 Predicted change in Energy=-6.092697D-05
 GradGradGradGradGradGradGradGradGradGradGradGradGradGradGradGradGradGrad

                          Input orientation:                          
 ---------------------------------------------------------------------
 Center     Atomic      Atomic             Coordinates (Angstroms)
 Number     Number       Type             X           Y           Z
 ---------------------------------------------------------------------
      1          6           0        0.000133    0.016138   -0.002155
      2          6           0        0.056240    0.016281    1.480167
      3          1           0        1.016721    0.238021   -0.418416
      4          1           0       -0.717393    0.799363   -0.361953
      5          1           0       -0.321672   -0.982005   -0.392130
      6          6           0        0.421355   -1.025755    2.226242
      7          1           0       -0.219551    0.967398    1.968998
      8          1           0        0.707916   -2.005441    1.818014
      9          1           0        0.467693   -0.992467    3.323364
 ---------------------------------------------------------------------
                    Distance matrix (angstroms):
                    1          2          3          4          5
     1  C    0.000000
     2  C    1.483384   0.000000
     3  H    1.120694   2.139231   0.000000
     4  H    1.121490   2.145957   1.823580   0.000000
     5  H    1.118896   2.155200   1.811202   1.825042   0.000000
     6  C    2.495741   1.332582   2.990954   3.365495   2.722108
     7  H    2.199682   1.104373   2.785697   2.389439   3.063581
     8  H    2.810828   2.150856   3.182782   3.827622   2.644279
     9  H    3.506419   2.141084   3.976990   4.265752   3.798434
                    6          7          8          9
     6  C    0.000000
     7  H    2.109406   0.000000
     8  H    1.099342   3.117814   0.000000
     9  H    1.098604   2.479452   1.830273   0.000000
 Stoichiometry    C3H6
 Framework group  C1[X(C3H6)]
 Deg. of freedom    21
 Full point group                 C1      NOp   1
 Largest Abelian subgroup         C1      NOp   1
 Largest concise Abelian subgroup C1      NOp   1
                         Standard orientation:                         
 ---------------------------------------------------------------------
 Center     Atomic      Atomic             Coordinates (Angstroms)
 Number     Number       Type             X           Y           Z
 ---------------------------------------------------------------------
      1          6           0        1.224098   -0.170194   -0.000485
      2          6           0       -0.119276    0.458900   -0.003975
      3          1           0        1.520955   -0.420562    1.050775
      4          1           0        1.982043    0.534330   -0.432809
      5          1           0        1.225365   -1.118600   -0.594163
      6          6           0       -1.271311   -0.210860   -0.000453
      7          1           0       -0.130131    1.563200    0.002583
      8          1           0       -1.346305   -1.307611   -0.008501
      9          1           0       -2.252997    0.282170    0.011592
 ---------------------------------------------------------------------
 Rotational constants (GHZ):     45.7189164      9.3685317      8.1931777
 Standard basis: VSTO-6G (5D, 7F)
 There are    18 symmetry adapted cartesian basis functions of A   symmetry.
 There are    18 symmetry adapted basis functions of A   symmetry.
    18 basis functions,   108 primitive gaussians,    18 cartesian basis functions
     9 alpha electrons        9 beta electrons
       nuclear repulsion energy        50.8451149027 Hartrees.
 Integral buffers will be    131072 words long.
 Regular integral format.
 Two-electron integral symmetry is turned off.
 Do NDO integrals.
 One-electron integrals computed using PRISM.
 NBasis=    18 RedAO= F EigKep=  0.00D+00  NBF=    18
 NBsUse=    18 1.00D-04 EigRej=  0.00D+00 NBFU=    18
 Initial guess from the checkpoint file:  "/blue/chm6586/le.chen/hw2/homo/Gau-67300.chk"
 B after Tr=     0.000000    0.000000    0.000000
         Rot=    0.998721    0.050211   -0.005808    0.000740 Ang=   5.80 deg.
 Overlap will be assumed to be unity.
 Keep J ints in memory in canonical form, NReq=886606.
 Requested convergence on RMS density matrix=1.00D-08 within 128 cycles.
 Requested convergence on MAX density matrix=1.00D-06.
 Requested convergence on             energy=1.00D-06.
 No special actions if energy rises.
 SCF Done:  E(RAM1) =  0.111893822284E-01 A.U. after   11 cycles
            NFock= 10  Conv=0.92D-08     -V/T= 1.0010
 Calling FoFJK, ICntrl=      2127 FMM=F ISym2X=0 I1Cent= 0 IOpClX= 0 NMat=1 NMatS=1 NMatT=0.
 ***** Axes restored to original set *****
 -------------------------------------------------------------------
 Center     Atomic                   Forces (Hartrees/Bohr)
 Number     Number              X              Y              Z
 -------------------------------------------------------------------
      1        6          -0.000147138   -0.000108932    0.006675826
      2        6           0.000948598   -0.001822927   -0.000508813
      3        1          -0.001503501    0.000721006   -0.000066370
      4        1           0.002104348   -0.002668580   -0.000133835
      5        1          -0.000215520    0.001315129   -0.000141491
      6        6           0.000428950   -0.001922512   -0.001202384
      7        1           0.000124422    0.000151122   -0.001689075
      8        1          -0.000775246    0.001811936   -0.002490563
      9        1          -0.000964912    0.002523758   -0.000443297
 -------------------------------------------------------------------
 Cartesian Forces:  Max     0.006675826 RMS     0.001836172

 GradGradGradGradGradGradGradGradGradGradGradGradGradGradGradGradGradGrad
 Berny optimization.
 Using GEDIIS/GDIIS optimizer.
 FormGI is forming the generalized inverse of G from B-inverse, IUseBI=4.
 Internal  Forces:  Max     0.006338535 RMS     0.002005931
 Search for a local minimum.
 Step number   7 out of a maximum of   40
 All quantities printed in internal units (Hartrees-Bohrs-Radians)
 Mixed Optimization -- RFO/linear search
 Update second derivatives using D2CorX and points    6    7
 DE= -4.89D-05 DEPred=-6.09D-05 R= 8.02D-01
 TightC=F SS=  1.41D+00  RLast= 7.75D-01 DXNew= 6.0421D-01 2.3249D+00
 Trust test= 8.02D-01 RLast= 7.75D-01 DXMaxT set to 6.04D-01
 ITU=  1  1  1  1  1  1  0
 Use linear search instead of GDIIS.
     Eigenvalues ---    0.00016   0.01719   0.02905   0.02917   0.07339
     Eigenvalues ---    0.07521   0.12841   0.15961   0.16000   0.16028
     Eigenvalues ---    0.16551   0.20684   0.25914   0.34308   0.34390
     Eigenvalues ---    0.35006   0.35224   0.35445   0.39804   0.52575
     Eigenvalues ---    2.16860
 RFO step:  Lambda=-6.21328735D-05 EMin= 1.63141058D-04
 Quartic linear search produced a step of -0.17595.
 Iteration  1 RMS(Cart)=  0.02789974 RMS(Int)=  0.00041030
 Iteration  2 RMS(Cart)=  0.00044897 RMS(Int)=  0.00000554
 Iteration  3 RMS(Cart)=  0.00000010 RMS(Int)=  0.00000553
 Variable       Old X    -DE/DX   Delta X   Delta X   Delta X     New X
                                 (Linear)    (Quad)   (Total)
    R1        2.80319  -0.00634  -0.00167   0.00141  -0.00026   2.80293
    R2        2.11780  -0.00120  -0.00047   0.00061   0.00015   2.11795
    R3        2.11931  -0.00317  -0.00123   0.00154   0.00031   2.11962
    R4        2.11441  -0.00106  -0.00002  -0.00013  -0.00015   2.11426
    R5        2.51822  -0.00456  -0.00029   0.00042   0.00013   2.51834
    R6        2.08696  -0.00065  -0.00043   0.00052   0.00009   2.08706
    R7        2.07745  -0.00089  -0.00047   0.00061   0.00014   2.07760
    R8        2.07606  -0.00041  -0.00036   0.00052   0.00016   2.07622
    A1        1.91435   0.00055   0.00234  -0.00301  -0.00065   1.91370
    A2        1.92274   0.00132   0.00242  -0.00424  -0.00181   1.92093
    A3        1.93826   0.00054  -0.00070   0.00158   0.00088   1.93914
    A4        1.89962  -0.00121  -0.00186   0.00219   0.00035   1.89997
    A5        1.88395  -0.00004   0.00009   0.00075   0.00084   1.88478
    A6        1.90411  -0.00124  -0.00243   0.00289   0.00045   1.90456
    A7        2.17701  -0.00263  -0.00267   0.00390   0.00123   2.17824
    A8        2.01856  -0.00031  -0.00032  -0.00121  -0.00153   2.01703
    A9        2.08755   0.00294   0.00300  -0.00269   0.00031   2.08786
   A10        2.16563  -0.00235  -0.00383   0.00443   0.00060   2.16624
   A11        2.14955  -0.00163  -0.00232   0.00237   0.00005   2.14960
   A12        1.96800   0.00398   0.00615  -0.00681  -0.00065   1.96735
    D1       -1.47024  -0.00060   0.05452  -0.11194  -0.05743  -1.52767
    D2        1.65879  -0.00049   0.05617  -0.11258  -0.05641   1.60238
    D3        2.72231  -0.00027   0.05379  -0.11012  -0.05633   2.66598
    D4       -0.43185  -0.00016   0.05543  -0.11075  -0.05530  -0.48715
    D5        0.61069   0.00005   0.05570  -0.11196  -0.05626   0.55443
    D6       -2.54347   0.00016   0.05735  -0.11259  -0.05524  -2.59871
    D7       -0.01532  -0.00002   0.00191  -0.00133   0.00057  -0.01475
    D8        3.12553   0.00017   0.00210  -0.00146   0.00064   3.12617
    D9        3.13930  -0.00011   0.00020  -0.00069  -0.00048   3.13882
   D10       -0.00304   0.00008   0.00040  -0.00082  -0.00041  -0.00345
         Item               Value     Threshold  Converged?
 Maximum Force            0.006339     0.000450     NO 
 RMS     Force            0.002006     0.000300     NO 
 Maximum Displacement     0.069073     0.001800     NO 
 RMS     Displacement     0.027901     0.001200     NO 
 Predicted change in Energy=-3.144331D-05
 GradGradGradGradGradGradGradGradGradGradGradGradGradGradGradGradGradGrad

                          Input orientation:                          
 ---------------------------------------------------------------------
 Center     Atomic      Atomic             Coordinates (Angstroms)
 Number     Number       Type             X           Y           Z
 ---------------------------------------------------------------------
[...]
      3          1           0        0.849530    0.606089   -0.465486
      4          1           0       -0.948285    0.469991   -0.290710
      5          1           0        0.067522   -1.028379   -0.396443
      6          6           0        0.323553   -1.048875    2.233833
      7          1           0        0.137936    1.041663    1.931626
      8          1           0        0.359072   -2.063807    1.816737
      9          1           0        0.424980   -0.993684    3.325263
 ---------------------------------------------------------------------
                    Distance matrix (angstroms):
                    1          2          3          4          5
     1  C    0.000000
     2  C    1.476415   0.000000
     3  H    1.119039   2.136967   0.000000
     4  H    1.119119   2.136921   1.811411   0.000000
     5  H    1.117665   2.158339   1.813226   1.813327   0.000000
     6  C    2.482730   1.331057   3.209654   3.209025   2.642787
     7  H    2.183617   1.103429   2.538156   2.538791   3.116077
     8  H    2.772828   2.135454   3.546468   3.545511   2.460747
     9  H    3.488262   2.129991   4.136338   4.135633   3.738994
                    6          7          8          9
     6  C    0.000000
     7  H    2.120408   0.000000
     8  H    1.097870   3.115452   0.000000
     9  H    1.097521   2.483396   1.850718   0.000000
 Stoichiometry    C3H6
 Framework group  C1[X(C3H6)]
 Deg. of freedom    21
 Full point group                 C1      NOp   1
 Largest Abelian subgroup         C1      NOp   1
 Largest concise Abelian subgroup C1      NOp   1
                         Standard orientation:                         
 ---------------------------------------------------------------------
 Center     Atomic      Atomic             Coordinates (Angstroms)
 Number     Number       Type             X           Y           Z
 ---------------------------------------------------------------------
      1          6           0        1.213789   -0.170885   -0.000018
      2          6           0       -0.120957    0.460190    0.000045
      3          1           0        1.789496    0.147740    0.905127
      4          1           0        1.788633    0.146392   -0.906283
      5          1           0        1.146856   -1.286544    0.000896
      6          6           0       -1.268564   -0.214131    0.000033
      7          1           0       -0.112779    1.563589    0.000164
      8          1           0       -1.313769   -1.311070    0.000112
      9          1           0       -2.244045    0.288850   -0.000372
 ---------------------------------------------------------------------
 Rotational constants (GHZ):     45.6008597      9.4643505      8.2613435
 Standard basis: VSTO-6G (5D, 7F)
 There are    18 symmetry adapted cartesian basis functions of A   symmetry.
 There are    18 symmetry adapted basis functions of A   symmetry.
    18 basis functions,   108 primitive gaussians,    18 cartesian basis functions
     9 alpha electrons        9 beta electrons
       nuclear repulsion energy        50.9257367145 Hartrees.
 Integral buffers will be    131072 words long.
 Regular integral format.
 Two-electron integral symmetry is turned off.
 Do NDO integrals.
 One-electron integrals computed using PRISM.
 NBasis=    18 RedAO= F EigKep=  0.00D+00  NBF=    18
 NBsUse=    18 1.00D-04 EigRej=  0.00D+00 NBFU=    18
 Initial guess from the checkpoint file:  "/blue/chm6586/le.chen/hw2/homo/Gau-67300.chk"
 B after Tr=     0.000000    0.000000    0.000000
         Rot=    0.999999   -0.001264    0.000171    0.000001 Ang=  -0.15 deg.
 Overlap will be assumed to be unity.
 Keep J ints in memory in canonical form, NReq=886606.
 Requested convergence on RMS density matrix=1.00D-08 within 128 cycles.
 Requested convergence on MAX density matrix=1.00D-06.
 Requested convergence on             energy=1.00D-06.
 No special actions if energy rises.
 SCF Done:  E(RAM1) =  0.103825089897E-01 A.U. after    9 cycles
            NFock=  8  Conv=0.59D-08     -V/T= 1.0010
 Calling FoFJK, ICntrl=      2127 FMM=F ISym2X=0 I1Cent= 0 IOpClX= 0 NMat=1 NMatS=1 NMatT=0.
 ***** Axes restored to original set *****
 -------------------------------------------------------------------
 Center     Atomic                   Forces (Hartrees/Bohr)
 Number     Number              X              Y              Z
 -------------------------------------------------------------------
      1        6          -0.000027435   -0.000004025    0.000003399
      2        6           0.000014689   -0.000040446   -0.000021700
      3        1           0.000017177    0.000014392   -0.000000550
      4        1           0.000020250   -0.000010680    0.000010258
      5        1          -0.000004337    0.000019757    0.000021226
      6        6          -0.000024066   -0.000018951    0.000003393
      7        1          -0.000012652    0.000022772   -0.000012053
      8        1          -0.000000280    0.000005677   -0.000008613
      9        1           0.000016655    0.000011505    0.000004642
 -------------------------------------------------------------------
 Cartesian Forces:  Max     0.000040446 RMS     0.000016562

 GradGradGradGradGradGradGradGradGradGradGradGradGradGradGradGradGradGrad
 Berny optimization.
 Using GEDIIS/GDIIS optimizer.
 FormGI is forming the generalized inverse of G from B-inverse, IUseBI=4.
 Internal  Forces:  Max     0.000035022 RMS     0.000013904
 Search for a local minimum.
 Step number  18 out of a maximum of   40
 All quantities printed in internal units (Hartrees-Bohrs-Radians)
 Mixed Optimization -- En-DIIS/RFO-DIIS
 Swapping is turned off.
 Update second derivatives using D2CorX and points    9   12   11   13   14
                                                     15   16   17   18
 DE= -2.09D-07 DEPred=-1.82D-07 R= 1.15D+00
 Trust test= 1.15D+00 RLast= 2.02D-02 DXMaxT set to 3.02D-01
 ITU=  0  0  1  1  1  0  0  0  0 -1  1  1  1  1  1  1  1  0
     Eigenvalues ---    0.00063   0.02019   0.02784   0.04779   0.06960
     Eigenvalues ---    0.07544   0.10576   0.13538   0.14993   0.15429
     Eigenvalues ---    0.16076   0.16695   0.21590   0.34070   0.34981
     Eigenvalues ---    0.35338   0.35438   0.35949   0.37580   0.55812
     Eigenvalues ---    0.84493
 En-DIIS/RFO-DIIS IScMMF=        0 using points:    18   17   16   15   14
 RFO step:  Lambda=-1.17174079D-08.
 DidBck=F Rises=F RFO-DIIS coefs:    1.16565   -0.11293   -0.18388    0.12319    0.00797
 Iteration  1 RMS(Cart)=  0.00054867 RMS(Int)=  0.00000022
 Iteration  2 RMS(Cart)=  0.00000018 RMS(Int)=  0.00000016
 Variable       Old X    -DE/DX   Delta X   Delta X   Delta X     New X
                                 (Linear)    (Quad)   (Total)
    R1        2.79002  -0.00004  -0.00004  -0.00001  -0.00005   2.78997
    R2        2.11468   0.00002   0.00008  -0.00001   0.00007   2.11474
    R3        2.11483  -0.00002  -0.00004  -0.00003  -0.00008   2.11475
    R4        2.11208  -0.00003  -0.00007   0.00000  -0.00008   2.11200
    R5        2.51533   0.00000  -0.00001   0.00001   0.00000   2.51534
    R6        2.08518   0.00002   0.00001   0.00005   0.00006   2.08524
    R7        2.07467   0.00000  -0.00001   0.00000  -0.00001   2.07466
    R8        2.07401   0.00001   0.00001   0.00001   0.00002   2.07403
    A1        1.92129  -0.00001   0.00000  -0.00010  -0.00011   1.92118
    A2        1.92114   0.00000   0.00000   0.00003   0.00003   1.92117
    A3        1.95253  -0.00002  -0.00007   0.00001  -0.00006   1.95247
    A4        1.88603   0.00001   0.00004  -0.00001   0.00003   1.88606
    A5        1.89059   0.00001   0.00006   0.00002   0.00009   1.89067
    A6        1.89064   0.00001  -0.00002   0.00005   0.00003   1.89067
    A7        2.16869   0.00001   0.00005   0.00004   0.00009   2.16878
    A8        2.00504  -0.00003  -0.00014  -0.00007  -0.00022   2.00482
    A9        2.10945   0.00002   0.00009   0.00004   0.00013   2.10958
   A10        2.14323  -0.00001  -0.00003  -0.00003  -0.00006   2.14316
   A11        2.13428  -0.00001  -0.00007  -0.00001  -0.00007   2.13421
   A12        2.00568   0.00001   0.00010   0.00004   0.00014   2.00581
    D1       -2.10394   0.00000   0.00086   0.00021   0.00107  -2.10287
    D2        1.03759   0.00000   0.00113  -0.00003   0.00110   1.03869
    D3        2.10203   0.00000   0.00081   0.00027   0.00108   2.10311
    D4       -1.03962   0.00000   0.00108   0.00002   0.00110  -1.03851
    D5       -0.00094   0.00000   0.00089   0.00018   0.00107   0.00013
    D6        3.14060   0.00000   0.00116  -0.00007   0.00109  -3.14150
    D7        0.00015   0.00000   0.00019  -0.00033  -0.00014   0.00001
    D8       -3.14110  -0.00001  -0.00017  -0.00029  -0.00046  -3.14156
    D9       -3.14138   0.00000  -0.00010  -0.00007  -0.00017  -3.14155
   D10        0.00055  -0.00002  -0.00045  -0.00003  -0.00049   0.00006
         Item               Value     Threshold  Converged?
 Maximum Force            0.000035     0.000450     YES
 RMS     Force            0.000014     0.000300     YES
 Maximum Displacement     0.001444     0.001800     YES
 RMS     Displacement     0.000549     0.001200     YES
 Predicted change in Energy=-1.833847D-08
 Optimization completed.
    -- Stationary point found.
                           ----------------------------
                           !   Optimized Parameters   !
                           ! (Angstroms and Degrees)  !
 --------------------------                            --------------------------
 ! Name  Definition              Value          Derivative Info.                !
 --------------------------------------------------------------------------------
 ! R1    R(1,2)                  1.4764         -DE/DX =    0.0                 !
 ! R2    R(1,3)                  1.119          -DE/DX =    0.0                 !
 ! R3    R(1,4)                  1.1191         -DE/DX =    0.0                 !
 ! R4    R(1,5)                  1.1177         -DE/DX =    0.0                 !
 ! R5    R(2,6)                  1.3311         -DE/DX =    0.0                 !
 ! R6    R(2,7)                  1.1034         -DE/DX =    0.0                 !
 ! R7    R(6,8)                  1.0979         -DE/DX =    0.0                 !
 ! R8    R(6,9)                  1.0975         -DE/DX =    0.0                 !
 ! A1    A(2,1,3)              110.0818         -DE/DX =    0.0                 !
 ! A2    A(2,1,4)              110.0734         -DE/DX =    0.0                 !
 ! A3    A(2,1,5)              111.8717         -DE/DX =    0.0                 !
 ! A4    A(3,1,4)              108.0613         -DE/DX =    0.0                 !
 ! A5    A(3,1,5)              108.3227         -DE/DX =    0.0                 !
 ! A6    A(4,1,5)              108.3258         -DE/DX =    0.0                 !
 ! A7    A(1,2,6)              124.2569         -DE/DX =    0.0                 !
 ! A8    A(1,2,7)              114.8804         -DE/DX =    0.0                 !
 ! A9    A(6,2,7)              120.8627         -DE/DX =    0.0                 !
 ! A10   A(2,6,8)              122.7978         -DE/DX =    0.0                 !
 ! A11   A(2,6,9)              122.2853         -DE/DX =    0.0                 !
 ! A12   A(8,6,9)              114.9169         -DE/DX =    0.0                 !
 ! D1    D(3,1,2,6)           -120.5469         -DE/DX =    0.0                 !
 ! D2    D(3,1,2,7)             59.4497         -DE/DX =    0.0                 !
 ! D3    D(4,1,2,6)            120.4376         -DE/DX =    0.0                 !
 ! D4    D(4,1,2,7)            -59.5657         -DE/DX =    0.0                 !
 ! D5    D(5,1,2,6)             -0.0538         -DE/DX =    0.0                 !
 ! D6    D(5,1,2,7)           -180.0571         -DE/DX =    0.0                 !
 ! D7    D(1,2,6,8)              0.0086         -DE/DX =    0.0                 !
 ! D8    D(1,2,6,9)           -179.972          -DE/DX =    0.0                 !
 ! D9    D(7,2,6,8)           -179.9879         -DE/DX =    0.0                 !
 ! D10   D(7,2,6,9)              0.0316         -DE/DX =    0.0                 !
 --------------------------------------------------------------------------------
 GradGradGradGradGradGradGradGradGradGradGradGradGradGradGradGradGradGrad

                          Input orientation:                          
 ---------------------------------------------------------------------
 Center     Atomic      Atomic             Coordinates (Angstroms)
 Number     Number       Type             X           Y           Z
 ---------------------------------------------------------------------
      1          6           0        0.028085    0.012440    0.008915
      2          6           0        0.169047    0.036093    1.478396
      3          1           0        0.849530    0.606089   -0.465486
      4          1           0       -0.948285    0.469991   -0.290710
      5          1           0        0.067522   -1.028379   -0.396443
      6          6           0        0.323553   -1.048875    2.233833
      7          1           0        0.137936    1.041663    1.931626
      8          1           0        0.359072   -2.063807    1.816737
      9          1           0        0.424980   -0.993684    3.325263
 ---------------------------------------------------------------------
                    Distance matrix (angstroms):
                    1          2          3          4          5
     1  C    0.000000
     2  C    1.476415   0.000000
     3  H    1.119039   2.136967   0.000000
     4  H    1.119119   2.136921   1.811411   0.000000
     5  H    1.117665   2.158339   1.813226   1.813327   0.000000
     6  C    2.482730   1.331057   3.209654   3.209025   2.642787
     7  H    2.183617   1.103429   2.538156   2.538791   3.116077
     8  H    2.772828   2.135454   3.546468   3.545511   2.460747
     9  H    3.488262   2.129991   4.136338   4.135633   3.738994
                    6          7          8          9
     6  C    0.000000
     7  H    2.120408   0.000000
     8  H    1.097870   3.115452   0.000000
     9  H    1.097521   2.483396   1.850718   0.000000
 Stoichiometry    C3H6
 Framework group  C1[X(C3H6)]
 Deg. of freedom    21
 Full point group                 C1      NOp   1
 Largest Abelian subgroup         C1      NOp   1
 Largest concise Abelian subgroup C1      NOp   1
                         Standard orientation:                         
 ---------------------------------------------------------------------
 Center     Atomic      Atomic             Coordinates (Angstroms)
 Number     Number       Type             X           Y           Z
 ---------------------------------------------------------------------
      1          6           0        1.213789   -0.170885   -0.000018
      2          6           0       -0.120957    0.460190    0.000045
      3          1           0        1.789496    0.147740    0.905127
      4          1           0        1.788633    0.146392   -0.906283
      5          1           0        1.146856   -1.286544    0.000896
      6          6           0       -1.268564   -0.214131    0.000033
      7          1           0       -0.112779    1.563589    0.000164
      8          1           0       -1.313769   -1.311070    0.000112
      9          1           0       -2.244045    0.288850   -0.000372
 ---------------------------------------------------------------------
 Rotational constants (GHZ):     45.6008597      9.4643505      8.2613435

 **********************************************************************

            Population analysis using the SCF density.

 **********************************************************************

 Orbital symmetries:
       Occupied  (A) (A) (A) (A) (A) (A) (A) (A) (A)
       Virtual   (A) (A) (A) (A) (A) (A) (A) (A) (A)
 The electronic state is 1-A.
 Alpha  occ. eigenvalues --   -1.28843  -1.02273  -0.75400  -0.58546  -0.52822
 Alpha  occ. eigenvalues --   -0.51596  -0.46094  -0.43586  -0.36720
 Alpha virt. eigenvalues --    0.05016   0.14547   0.15952   0.16495   0.16843
 Alpha virt. eigenvalues --    0.18015   0.18795   0.20814   0.21758
          Condensed to atoms (all electrons):
               1          2          3          4          5          6
     1  C    4.189380   0.000000   0.000000   0.000000   0.000000   0.000000
     2  C    0.000000   4.161883   0.000000   0.000000   0.000000   0.000000
     3  H    0.000000   0.000000   0.918453   0.000000   0.000000   0.000000
     4  H    0.000000   0.000000   0.000000   0.918436   0.000000   0.000000
     5  H    0.000000   0.000000   0.000000   0.000000   0.922778   0.000000
     6  C    0.000000   0.000000   0.000000   0.000000   0.000000   4.225904
     7  H    0.000000   0.000000   0.000000   0.000000   0.000000   0.000000
     8  H    0.000000   0.000000   0.000000   0.000000   0.000000   0.000000
     9  H    0.000000   0.000000   0.000000   0.000000   0.000000   0.000000
               7          8          9
     1  C    0.000000   0.000000   0.000000
     2  C    0.000000   0.000000   0.000000
     3  H    0.000000   0.000000   0.000000
     4  H    0.000000   0.000000   0.000000
     5  H    0.000000   0.000000   0.000000
     6  C    0.000000   0.000000   0.000000
     7  H    0.883451   0.000000   0.000000
     8  H    0.000000   0.889977   0.000000
     9  H    0.000000   0.000000   0.889737
 Mulliken charges:
               1
     1  C   -0.189380
     2  C   -0.161883
     3  H    0.081547
     4  H    0.081564
     5  H    0.077222
     6  C   -0.225904
     7  H    0.116549
     8  H    0.110023
     9  H    0.110263
 Sum of Mulliken charges =   0.00000
 Mulliken charges with hydrogens summed into heavy atoms:
               1
     1  C    0.050953
     2  C   -0.045335
     6  C   -0.005618
 Charge=              0.0000 electrons
 Dipole moment (field-independent basis, Debye):
    X=              0.2283    Y=              0.0249    Z=             -0.0003  Tot=              0.2296
 N-N= 5.092573671450D+01 E-N=-7.901753390106D+01  KE=-1.089559072680D+01
 B after Tr=    -0.067411   -0.026052    0.001986
         Rot=    0.999115   -0.001434    0.000120   -0.042033 Ang=  -4.82 deg.
 Final structure in terms of initial Z-matrix:
 C
 C,1,B1
 H,1,B2,2,A2
 H,1,B3,2,A3,3,D3,0
 H,1,B4,2,A4,3,D4,0
 C,2,B5,1,A5,3,D5,0
 H,2,B6,1,A6,3,D6,0
 H,6,B7,2,A7,1,D7,0
 H,6,B8,2,A8,1,D8,0
      Variables:
 B1=1.47641545
 B2=1.11903862
 A2=110.08176027
 B3=1.11911875
 A3=110.07335883
 D3=-119.01547903
 B4=1.11766513
 A4=111.87172158
 D4=120.4931241
 B5=1.33105708
 A5=124.25693176
 D5=-120.54688639
 B6=1.10342903
 A6=114.88040676
 D6=59.44973407
 B7=1.09787024
 A7=122.79782481
 D7=0.00855171
 B8=1.09752082
 A8=122.28527015
 D8=-179.97201469
 1\1\GINC-C0700A-S1\FOpt\RAM1\ZDO\C3H6\LE.CHEN\23-Sep-2021\0\\#am1 opt\
 \Title\\0,1\C,0.0552472022,0.0242814932,0.008022643\C,0.1962091737,0.0
 479346568,1.4775031087\H,0.8766923094,0.6179303948,-0.4663784094\H,-0.
 9211229703,0.4818323488,-0.2916025762\H,0.0946841208,-1.016537778,-0.3
 973356183\C,0.3507149445,-1.0370332321,2.2329404685\H,0.1650979339,1.0
 535041848,1.9307333382\H,0.3862342322,-2.0519656913,1.815843888\H,0.45
 21420021,-0.9818429151,3.3243700491\\Version=AS64L-G09RevD.01\State=1-
 A\HF=0.0103825\RMSD=5.940e-09\RMSF=1.656e-05\Dipole=-0.0110433,0.04586
 35,-0.0770525\PG=C01 [X(C3H6)]\\@


 MATERIAL COPIED FROM ONE SCHOLARLY BOOK WITHOUT CREDIT COMPRISES PLAGIARISM.
 MATERIAL COPIED FROM TWO SCHOLARLY BOOKS COMPRISES AN ESSAY.
 MATERIAL COPIED FROM THREE SCHOLARLY BOOKS COMPRISES A DISSERTATION.
 MATERIAL COPIED FROM FOUR SCHOLARLY BOOKS COMPRISES A FIFTH SCHOLARLY BOOK.

                               -- C&EN, 25 FEB 1980
 Job cpu time:       0 days  0 hours  0 minutes  6.4 seconds.
 File lengths (MBytes):  RWF=      5 Int=      0 D2E=      0 Chk=      2 Scr=      1
 Normal termination of Gaussian 09 at Thu Sep 23 21:44:52 2021.
