 Entering Gaussian System, Link 0=g09
 Initial command:
 /apps/gaussian/g09/amd-sse4a/l1.exe "/blue/chm6586/le.chen/hw2/homo/Gau-69761.inp" -scrdir="/blue/chm6586/le.chen/hw2/homo/"
 Entering Link 1 = /apps/gaussian/g09/amd-sse4a/l1.exe PID=     69765.
  
 Copyright (c) 1988,1990,1992,1993,1995,1998,2003,2009,2013,
            Gaussian, Inc.  All Rights Reserved.
  
 This is part of the Gaussian(R) 09 program.  It is based on
 the Gaussian(R) 03 system (copyright 2003, Gaussian, Inc.),
 the Gaussian(R) 98 system (copyright 1998, Gaussian, Inc.),
 the Gaussian(R) 94 system (copyright 1995, Gaussian, Inc.),
 the Gaussian 92(TM) system (copyright 1992, Gaussian, Inc.),
 the Gaussian 90(TM) system (copyright 1990, Gaussian, Inc.),
 the Gaussian 88(TM) system (copyright 1988, Gaussian, Inc.),
 the Gaussian 86(TM) system (copyright 1986, Carnegie Mellon
 University), and the Gaussian 82(TM) system (copyright 1983,
 Carnegie Mellon University). Gaussian is a federally registered
 trademark of Gaussian, Inc.
  
 This software contains proprietary and confidential information,
 including trade secrets, belonging to Gaussian, Inc.
  
 This software is provided under written license and may be
 used, copied, transmitted, or stored only in accord with that
 written license.
  
 The following legend is applicable only to US Government
 contracts under FAR:
  
                    RESTRICTED RIGHTS LEGEND
  
 Use, reproduction and disclosure by the US Government is
 subject to restrictions as set forth in subparagraphs (a)
 and (c) of the Commercial Computer Software - Restricted
 Rights clause in FAR 52.227-19.
  
 Gaussian, Inc.
 340 Quinnipiac St., Bldg. 40, Wallingford CT 06492
  
  
 ---------------------------------------------------------------
 Warning -- This program may not be used in any manner that
 competes with the business of Gaussian, Inc. or will provide
 assistance to any competitor of Gaussian, Inc.  The licensee
 of this program is prohibited from giving any competitor of
 Gaussian, Inc. access to this program.  By using this program,
 the user acknowledges that Gaussian, Inc. is engaged in the
 business of creating and licensing software in the field of
 computational chemistry and represents and warrants to the
 licensee that it is not a competitor of Gaussian, Inc. and that
 it will not use this program in any manner prohibited above.
 ---------------------------------------------------------------
  

 Cite this work as:
 Gaussian 09, Revision D.01,
 M. J. Frisch, G. W. Trucks, H. B. Schlegel, G. E. Scuseria, 
 M. A. Robb, J. R. Cheeseman, G. Scalmani, V. Barone, B. Mennucci, 
 G. A. Petersson, H. Nakatsuji, M. Caricato, X. Li, H. P. Hratchian, 
 A. F. Izmaylov, J. Bloino, G. Zheng, J. L. Sonnenberg, M. Hada, 
 M. Ehara, K. Toyota, R. Fukuda, J. Hasegawa, M. Ishida, T. Nakajima, 
 Y. Honda, O. Kitao, H. Nakai, T. Vreven, J. A. Montgomery, Jr., 
 J. E. Peralta, F. Ogliaro, M. Bearpark, J. J. Heyd, E. Brothers, 
 K. N. Kudin, V. N. Staroverov, T. Keith, R. Kobayashi, J. Normand, 
 K. Raghavachari, A. Rendell, J. C. Burant, S. S. Iyengar, J. Tomasi, 
 M. Cossi, N. Rega, J. M. Millam, M. Klene, J. E. Knox, J. B. Cross, 
 V. Bakken, C. Adamo, J. Jaramillo, R. Gomperts, R. E. Stratmann, 
 O. Yazyev, A. J. Austin, R. Cammi, C. Pomelli, J. W. Ochterski, 
 R. L. Martin, K. Morokuma, V. G. Zakrzewski, G. A. Voth, 
 P. Salvador, J. J. Dannenberg, S. Dapprich, A. D. Daniels, 
 O. Farkas, J. B. Foresman, J. V. Ortiz, J. Cioslowski, 
 and D. J. Fox, Gaussian, Inc., Wallingford CT, 2013.
 
 ******************************************
 Gaussian 09:  AS64L-G09RevD.01 24-Apr-2013
                23-Sep-2021 
 ******************************************
 ----------
 #n AM1 Opt
 ----------
 1/14=-1,18=20,19=15,26=1,38=1/1,3;
 2/9=110,12=2,17=6,18=5,40=1/2;
 3/5=2,16=1,25=1,41=700000,71=1/1,2,3;
 4/35=1/1;
 5/5=2,35=1,38=5/2;
 6/7=2,8=2,9=2,10=2,28=1/1;
 7//1,2,3,16;
 1/14=-1,18=20,19=15,26=1/3(2);
 2/9=110/2;
 99//99;
 2/9=110/2;
 3/5=2,16=1,25=1,41=700000,71=1,135=20/1,2,3;
 4/5=5,16=3,35=1/1;
 5/5=2,35=1,38=5/2;
 7//1,2,3,16;
 1/14=-1,18=20,19=15,26=1/3(-5);
 2/9=110/2;
 6/7=2,8=2,9=2,10=2,19=2,28=1/1;
 99/9=1/99;
 -----
 Title
 -----
 Symbolic Z-matrix:
 Charge =  0 Multiplicity = 1
 C
 C                    1    B1
 H                    1    B2       2    A2
 H                    1    B3       2    A3       3    D3       0
 H                    1    B4       2    A4       3    D4       0
 C                    2    B5       1    A5       3    D5       0
 H                    2    B6       1    A6       3    D6       0
 C                    6    B7       2    A7       1    D7       0
 H                    6    B8       2    A8       1    D8       0
 C                    8    B9       6    A9       2    D9       0
 H                    8    B10      6    A10      2    D10      0
 H                    10   B11      8    A11      6    D11      0
 H                    10   B12      8    A12      6    D12      0
       Variables:
  B1                    1.49358                  
  B2                    1.09414                  
  A2                  110.621                    
  B3                    1.09476                  
  A3                  109.8707                   
  D3                  240.92439                  
  B4                    1.0945                   
  A4                  111.28233                  
  D4                  121.80192                  
  B5                    1.34141                  
  A5                  122.96861                  
  D5                  286.79711                  
  B6                    1.08726                  
  A6                  116.5966                   
  D6                  106.79869                  
  B7                    1.44234                  
  A7                  122.81528                  
  D7                  180.13                     
  B8                    1.08826                  
  A8                  119.59253                  
  D8                    0.57435                  
  B9                    1.33848                  
  A9                  122.96316                  
  D9                  181.92314                  
  B10                   1.08785                  
  A10                 117.96776                  
  D10                   1.93671                  
  B11                   1.0851                   
  A11                 122.19178                  
  D11                   0.22641                  
  B12                   1.08531                  
  A12                 120.44486                  
  D12                 180.02957                  
 

 GradGradGradGradGradGradGradGradGradGradGradGradGradGradGradGradGradGrad
 Berny optimization.
 Initialization pass.
                           ----------------------------
                           !    Initial Parameters    !
                           ! (Angstroms and Degrees)  !
 --------------------------                            --------------------------
 ! Name  Definition              Value          Derivative Info.                !
 --------------------------------------------------------------------------------
 ! R1    R(1,2)                  1.4936         estimate D2E/DX2                !
 ! R2    R(1,3)                  1.0941         estimate D2E/DX2                !
 ! R3    R(1,4)                  1.0948         estimate D2E/DX2                !
 ! R4    R(1,5)                  1.0945         estimate D2E/DX2                !
 ! R5    R(2,6)                  1.3414         estimate D2E/DX2                !
 ! R6    R(2,7)                  1.0873         estimate D2E/DX2                !
 ! R7    R(6,8)                  1.4423         estimate D2E/DX2                !
 ! R8    R(6,9)                  1.0883         estimate D2E/DX2                !
 ! R9    R(8,10)                 1.3385         estimate D2E/DX2                !
 ! R10   R(8,11)                 1.0878         estimate D2E/DX2                !
 ! R11   R(10,12)                1.0851         estimate D2E/DX2                !
 ! R12   R(10,13)                1.0853         estimate D2E/DX2                !
 ! A1    A(2,1,3)              110.621          estimate D2E/DX2                !
 ! A2    A(2,1,4)              109.8707         estimate D2E/DX2                !
 ! A3    A(2,1,5)              111.2823         estimate D2E/DX2                !
 ! A4    A(3,1,4)              107.9412         estimate D2E/DX2                !
 ! A5    A(3,1,5)              109.3753         estimate D2E/DX2                !
 ! A6    A(4,1,5)              107.6449         estimate D2E/DX2                !
 ! A7    A(1,2,6)              122.9686         estimate D2E/DX2                !
 ! A8    A(1,2,7)              116.5966         estimate D2E/DX2                !
 ! A9    A(6,2,7)              120.4348         estimate D2E/DX2                !
 ! A10   A(2,6,8)              122.8153         estimate D2E/DX2                !
 ! A11   A(2,6,9)              119.5925         estimate D2E/DX2                !
 ! A12   A(8,6,9)              117.5908         estimate D2E/DX2                !
 ! A13   A(6,8,10)             122.9632         estimate D2E/DX2                !
 ! A14   A(6,8,11)             117.9678         estimate D2E/DX2                !
 ! A15   A(10,8,11)            119.0691         estimate D2E/DX2                !
 ! A16   A(8,10,12)            122.1918         estimate D2E/DX2                !
 ! A17   A(8,10,13)            120.4449         estimate D2E/DX2                !
 ! A18   A(12,10,13)           117.3631         estimate D2E/DX2                !
 ! D1    D(3,1,2,6)            -73.2029         estimate D2E/DX2                !
 ! D2    D(3,1,2,7)            106.7987         estimate D2E/DX2                !
 ! D3    D(4,1,2,6)            167.7215         estimate D2E/DX2                !
 ! D4    D(4,1,2,7)            -12.2769         estimate D2E/DX2                !
 ! D5    D(5,1,2,6)             48.599          estimate D2E/DX2                !
 ! D6    D(5,1,2,7)           -131.3994         estimate D2E/DX2                !
 ! D7    D(1,2,6,8)           -179.87           estimate D2E/DX2                !
 ! D8    D(1,2,6,9)              0.5744         estimate D2E/DX2                !
 ! D9    D(7,2,6,8)              0.1284         estimate D2E/DX2                !
 ! D10   D(7,2,6,9)           -179.4273         estimate D2E/DX2                !
 ! D11   D(2,6,8,10)          -178.0769         estimate D2E/DX2                !
 ! D12   D(2,6,8,11)             1.9367         estimate D2E/DX2                !
 ! D13   D(9,6,8,10)             1.4872         estimate D2E/DX2                !
 ! D14   D(9,6,8,11)          -178.4993         estimate D2E/DX2                !
 ! D15   D(6,8,10,12)            0.2264         estimate D2E/DX2                !
 ! D16   D(6,8,10,13)         -179.9704         estimate D2E/DX2                !
 ! D17   D(11,8,10,12)        -179.7873         estimate D2E/DX2                !
 ! D18   D(11,8,10,13)           0.0159         estimate D2E/DX2                !
 --------------------------------------------------------------------------------
 Trust Radius=3.00D-01 FncErr=1.00D-07 GrdErr=1.00D-07
 Number of steps in this run=     58 maximum allowed number of steps=    100.
 GradGradGradGradGradGradGradGradGradGradGradGradGradGradGradGradGradGrad

                          Input orientation:                          
 ---------------------------------------------------------------------
 Center     Atomic      Atomic             Coordinates (Angstroms)
 Number     Number       Type             X           Y           Z
 ---------------------------------------------------------------------
      1          6           0        0.000000    0.000000    0.000000
      2          6           0        0.000000    0.000000    1.493580
      3          1           0        1.024039    0.000000   -0.385339
      4          1           0       -0.500338    0.899832   -0.372107
      5          1           0       -0.537449   -0.866752   -0.397264
      6          6           0        0.325222   -1.077385    2.223548
      7          1           0       -0.280977    0.930719    1.980353
      8          6           0        0.321474   -1.074486    3.665880
      9          1           0        0.613406   -1.999245    1.722115
     10          6           0        0.681317   -2.136176    4.397219
     11          1           0        0.010449   -0.163945    4.173419
     12          1           0        1.003109   -3.068106    3.944010
     13          1           0        0.662681   -2.089007    5.481344
 ---------------------------------------------------------------------
                    Distance matrix (angstroms):
                    1          2          3          4          5
     1  C    0.000000
     2  C    1.493580   0.000000
     3  H    1.094140   2.139858   0.000000
     4  H    1.094760   2.130921   1.770197   0.000000
     5  H    1.094500   2.148349   1.785959   1.767153   0.000000
     6  C    2.492126   1.341410   2.907816   3.365763   2.767169
     7  H    2.206124   1.087260   2.857587   2.362867   2.991612
     8  C    3.833607   2.444740   4.249764   4.569316   4.158130
     9  H    2.709046   2.103681   2.933763   3.745776   2.664353
    10  C    4.935887   3.668591   5.249150   5.775823   5.107240
    11  H    4.176651   2.684869   4.672956   4.696204   4.656745
    12  H    5.096539   4.052667   5.306315   6.052582   5.105481
    13  H    5.903239   4.550314   6.237989   6.674479   6.123091
                    6          7          8          9         10
     6  C    0.000000
     7  H    2.111659   0.000000
     8  C    1.442340   2.687899   0.000000
     9  H    1.088260   3.074296   2.172239   0.000000
    10  C    2.443909   4.021579   1.338480   2.679467   0.000000
    11  H    2.176109   2.468351   1.087850   3.121021   2.095196
    12  H    2.717074   4.636316   2.125206   2.496227   1.085100
    13  H    3.427899   4.718705   2.107507   3.760623   1.085310
                   11         12         13
    11  H    0.000000
    12  H    3.077686   0.000000
    13  H    2.417011   1.854163   0.000000
 Stoichiometry    C5H8
 Framework group  C1[X(C5H8)]
 Deg. of freedom    33
 Full point group                 C1      NOp   1
 Largest Abelian subgroup         C1      NOp   1
 Largest concise Abelian subgroup C1      NOp   1
                         Standard orientation:                         
 ---------------------------------------------------------------------
 Center     Atomic      Atomic             Coordinates (Angstroms)
 Number     Number       Type             X           Y           Z
 ---------------------------------------------------------------------
      1          6           0        2.439247   -0.229534    0.002447
      2          6           0        1.102914    0.437528    0.007302
      3          1           0        2.646351   -0.684515    0.975710
      4          1           0        3.222696    0.508257   -0.198478
      5          1           0        2.497772   -0.996111   -0.776568
      6          6           0       -0.052801   -0.243162   -0.011802
      7          1           0        1.101573    1.524601    0.027410
      8          6           0       -1.341544    0.404514   -0.009790
      9          1           0       -0.035540   -1.331233   -0.022379
     10          6           0       -2.496455   -0.271770    0.008878
     11          1           0       -1.366019    1.491990   -0.024408
     12          1           0       -2.531147   -1.356158    0.027347
     13          1           0       -3.443846    0.257710    0.009158
 ---------------------------------------------------------------------
 Rotational constants (GHZ):     27.8872719      2.2040761      2.0696402
 Standard basis: VSTO-6G (5D, 7F)
 There are    28 symmetry adapted cartesian basis functions of A   symmetry.
 There are    28 symmetry adapted basis functions of A   symmetry.
    28 basis functions,   168 primitive gaussians,    28 cartesian basis functions
    14 alpha electrons       14 beta electrons
       nuclear repulsion energy        99.6987081876 Hartrees.
 Integral buffers will be    131072 words long.
 Regular integral format.
 Two-electron integral symmetry is turned off.
 Do NDO integrals.
 One-electron integrals computed using PRISM.
 NBasis=    28 RedAO= F EigKep=  0.00D+00  NBF=    28
 NBsUse=    28 1.00D-04 EigRej=  0.00D+00 NBFU=    28
 Simple Huckel Guess.
 Overlap will be assumed to be unity.
 Keep J ints in memory in canonical form, NReq=891302.
 Requested convergence on RMS density matrix=1.00D-08 within 128 cycles.
 Requested convergence on MAX density matrix=1.00D-06.
 Requested convergence on             energy=1.00D-06.
 No special actions if energy rises.
 SCF Done:  E(RAM1) =  0.345916120312E-01 A.U. after   12 cycles
            NFock= 11  Conv=0.30D-08     -V/T= 1.0020

 **********************************************************************

            Population analysis using the SCF density.

 **********************************************************************

 Orbital symmetries:
       Occupied  (A) (A) (A) (A) (A) (A) (A) (A) (A) (A) (A) (A)
                 (A) (A)
       Virtual   (A) (A) (A) (A) (A) (A) (A) (A) (A) (A) (A) (A)
                 (A) (A)
 The electronic state is 1-A.
 Alpha  occ. eigenvalues --   -1.34689  -1.21281  -1.02071  -0.80189  -0.74479
 Alpha  occ. eigenvalues --   -0.59373  -0.56414  -0.52373  -0.50768  -0.48082
 Alpha  occ. eigenvalues --   -0.45306  -0.43433  -0.43126  -0.33225
 Alpha virt. eigenvalues --    0.01449   0.08411   0.14071   0.15410   0.15695
 Alpha virt. eigenvalues --    0.16676   0.17122   0.17419   0.17963   0.18617
 Alpha virt. eigenvalues --    0.20023   0.20751   0.21322   0.22255
          Condensed to atoms (all electrons):
               1          2          3          4          5          6
     1  C    4.185123   0.000000   0.000000   0.000000   0.000000   0.000000
     2  C    0.000000   4.151477   0.000000   0.000000   0.000000   0.000000
     3  H    0.000000   0.000000   0.915151   0.000000   0.000000   0.000000
     4  H    0.000000   0.000000   0.000000   0.924792   0.000000   0.000000
     5  H    0.000000   0.000000   0.000000   0.000000   0.917698   0.000000
     6  C    0.000000   0.000000   0.000000   0.000000   0.000000   4.146146
     7  H    0.000000   0.000000   0.000000   0.000000   0.000000   0.000000
     8  C    0.000000   0.000000   0.000000   0.000000   0.000000   0.000000
     9  H    0.000000   0.000000   0.000000   0.000000   0.000000   0.000000
    10  C    0.000000   0.000000   0.000000   0.000000   0.000000   0.000000
    11  H    0.000000   0.000000   0.000000   0.000000   0.000000   0.000000
    12  H    0.000000   0.000000   0.000000   0.000000   0.000000   0.000000
    13  H    0.000000   0.000000   0.000000   0.000000   0.000000   0.000000
               7          8          9         10         11         12
     1  C    0.000000   0.000000   0.000000   0.000000   0.000000   0.000000
     2  C    0.000000   0.000000   0.000000   0.000000   0.000000   0.000000
     3  H    0.000000   0.000000   0.000000   0.000000   0.000000   0.000000
     4  H    0.000000   0.000000   0.000000   0.000000   0.000000   0.000000
     5  H    0.000000   0.000000   0.000000   0.000000   0.000000   0.000000
     6  C    0.000000   0.000000   0.000000   0.000000   0.000000   0.000000
     7  H    0.880260   0.000000   0.000000   0.000000   0.000000   0.000000
     8  C    0.000000   4.132438   0.000000   0.000000   0.000000   0.000000
     9  H    0.000000   0.000000   0.877919   0.000000   0.000000   0.000000
    10  C    0.000000   0.000000   0.000000   4.212217   0.000000   0.000000
    11  H    0.000000   0.000000   0.000000   0.000000   0.880619   0.000000
    12  H    0.000000   0.000000   0.000000   0.000000   0.000000   0.887652
    13  H    0.000000   0.000000   0.000000   0.000000   0.000000   0.000000
              13
     1  C    0.000000
     2  C    0.000000
     3  H    0.000000
     4  H    0.000000
     5  H    0.000000
     6  C    0.000000
     7  H    0.000000
     8  C    0.000000
     9  H    0.000000
    10  C    0.000000
    11  H    0.000000
    12  H    0.000000
    13  H    0.888508
 Mulliken charges:
               1
     1  C   -0.185123
     2  C   -0.151477
     3  H    0.084849
     4  H    0.075208
     5  H    0.082302
     6  C   -0.146146
     7  H    0.119740
     8  C   -0.132438
     9  H    0.122081
    10  C   -0.212217
    11  H    0.119381
    12  H    0.112348
    13  H    0.111492
 Sum of Mulliken charges =   0.00000
 Mulliken charges with hydrogens summed into heavy atoms:
               1
     1  C    0.057236
     2  C   -0.031738
     6  C   -0.024065
     8  C   -0.013057
    10  C    0.011623
 Charge=              0.0000 electrons
 Dipole moment (field-independent basis, Debye):
    X=              0.2988    Y=             -0.0229    Z=              0.0278  Tot=              0.3010
 N-N= 9.969870818763D+01 E-N=-1.630613536174D+02  KE=-1.737071883881D+01
 Calling FoFJK, ICntrl=      2127 FMM=F ISym2X=0 I1Cent= 0 IOpClX= 0 NMat=1 NMatS=1 NMatT=0.
 ***** Axes restored to original set *****
 -------------------------------------------------------------------
 Center     Atomic                   Forces (Hartrees/Bohr)
 Number     Number              X              Y              Z
 -------------------------------------------------------------------
      1        6          -0.002624105    0.003278707    0.027267891
      2        6           0.002292409   -0.008475225   -0.013977593
      3        1           0.016375310   -0.001499826   -0.004967328
      4        1          -0.007742363    0.014456188   -0.005623095
      5        1          -0.006560141   -0.014609460   -0.004774616
      6        6          -0.002815988    0.011130952   -0.004144332
      7        1          -0.002722066    0.009305749    0.002562123
      8        6           0.004265405   -0.012779323    0.003152742
      9        1           0.002785754   -0.010394123   -0.002860388
     10        6          -0.002988210    0.009390971   -0.006228370
     11        1          -0.003786540    0.011084927    0.002203402
     12        1           0.002662009   -0.008200251   -0.001514602
     13        1           0.000858526   -0.002689288    0.008904166
 -------------------------------------------------------------------
 Cartesian Forces:  Max     0.027267891 RMS     0.008645997

 GradGradGradGradGradGradGradGradGradGradGradGradGradGradGradGradGradGrad
 Berny optimization.
 FormGI is forming the generalized inverse of G from B-inverse, IUseBI=4.
 Internal  Forces:  Max     0.017331957 RMS     0.005847876
 Search for a local minimum.
 Step number   1 out of a maximum of   58
 All quantities printed in internal units (Hartrees-Bohrs-Radians)
 Mixed Optimization -- RFO/linear search
 Second derivative matrix not updated -- first step.
 ITU=  0
     Eigenvalues ---    0.00851   0.01529   0.01691   0.02209   0.02223
     Eigenvalues ---    0.02864   0.02903   0.02903   0.07251   0.07475
     Eigenvalues ---    0.16000   0.16000   0.16000   0.16000   0.16000
     Eigenvalues ---    0.16000   0.16000   0.16000   0.22000   0.22000
     Eigenvalues ---    0.22000   0.33060   0.34268   0.34298   0.34339
     Eigenvalues ---    0.35014   0.35062   0.35131   0.35360   0.35385
     Eigenvalues ---    0.39266   0.56890   0.57547
 RFO step:  Lambda=-5.04463529D-03 EMin= 8.50871731D-03
 Linear search not attempted -- first point.
 Iteration  1 RMS(Cart)=  0.02279147 RMS(Int)=  0.00027129
 Iteration  2 RMS(Cart)=  0.00034168 RMS(Int)=  0.00006861
 Iteration  3 RMS(Cart)=  0.00000014 RMS(Int)=  0.00006861
 Variable       Old X    -DE/DX   Delta X   Delta X   Delta X     New X
                                 (Linear)    (Quad)   (Total)
    R1        2.82246  -0.01190   0.00000  -0.03546  -0.03546   2.78699
    R2        2.06762   0.01708   0.00000   0.04901   0.04901   2.11663
    R3        2.06880   0.01733   0.00000   0.04984   0.04984   2.11864
    R4        2.06831   0.01652   0.00000   0.04748   0.04748   2.11578
    R5        2.53490   0.00195   0.00000   0.00339   0.00339   2.53829
    R6        2.05462   0.00982   0.00000   0.02755   0.02755   2.08217
    R7        2.72563   0.00651   0.00000   0.01636   0.01636   2.74199
    R8        2.05651   0.01086   0.00000   0.03058   0.03058   2.08709
    R9        2.52936   0.00197   0.00000   0.00339   0.00339   2.53275
   R10        2.05574   0.01139   0.00000   0.03202   0.03202   2.08776
   R11        2.05054   0.00846   0.00000   0.02359   0.02359   2.07413
   R12        2.05094   0.00876   0.00000   0.02443   0.02443   2.07537
    A1        1.93070  -0.00170   0.00000  -0.01362  -0.01376   1.91694
    A2        1.91761   0.00087   0.00000   0.01063   0.01065   1.92826
    A3        1.94224  -0.00185   0.00000  -0.01336  -0.01351   1.92873
    A4        1.88393   0.00117   0.00000   0.01119   0.01121   1.89514
    A5        1.90896   0.00004   0.00000  -0.00965  -0.00996   1.89900
    A6        1.87876   0.00166   0.00000   0.01632   0.01634   1.89510
    A7        2.14621  -0.00090   0.00000  -0.00401  -0.00401   2.14219
    A8        2.03499  -0.00165   0.00000  -0.01075  -0.01076   2.02424
    A9        2.10198   0.00256   0.00000   0.01476   0.01476   2.11674
   A10        2.14353   0.00085   0.00000   0.00378   0.00377   2.14730
   A11        2.08728   0.00206   0.00000   0.01321   0.01320   2.10048
   A12        2.05235  -0.00291   0.00000  -0.01694  -0.01694   2.03540
   A13        2.14611   0.00120   0.00000   0.00534   0.00534   2.15145
   A14        2.05893  -0.00422   0.00000  -0.02457  -0.02457   2.03436
   A15        2.07815   0.00301   0.00000   0.01923   0.01923   2.09737
   A16        2.13265   0.00083   0.00000   0.00503   0.00503   2.13768
   A17        2.10216   0.00290   0.00000   0.01759   0.01759   2.11975
   A18        2.04837  -0.00373   0.00000  -0.02261  -0.02261   2.02576
    D1       -1.27763   0.00105   0.00000   0.00830   0.00815  -1.26949
    D2        1.86399   0.00094   0.00000   0.00340   0.00328   1.86727
    D3        2.92729   0.00011   0.00000  -0.00377  -0.00378   2.92351
    D4       -0.21427   0.00001   0.00000  -0.00867  -0.00865  -0.22292
    D5        0.84821  -0.00134   0.00000  -0.02254  -0.02243   0.82579
    D6       -2.29335  -0.00145   0.00000  -0.02744  -0.02729  -2.32064
    D7       -3.13932  -0.00018   0.00000  -0.00525  -0.00524   3.13863
    D8        0.01002  -0.00038   0.00000  -0.01320  -0.01326  -0.00323
    D9        0.00224  -0.00007   0.00000  -0.00017  -0.00012   0.00212
   D10       -3.13160  -0.00027   0.00000  -0.00813  -0.00814  -3.13973
   D11       -3.10803  -0.00017   0.00000  -0.00692  -0.00688  -3.11491
   D12        0.03380  -0.00016   0.00000  -0.00645  -0.00642   0.02738
   D13        0.02596   0.00005   0.00000   0.00101   0.00098   0.02694
   D14       -3.11540   0.00006   0.00000   0.00148   0.00144  -3.11396
   D15        0.00395  -0.00013   0.00000  -0.00368  -0.00368   0.00027
   D16       -3.14108   0.00004   0.00000   0.00128   0.00128  -3.13979
   D17       -3.13788  -0.00014   0.00000  -0.00415  -0.00415   3.14115
   D18        0.00028   0.00003   0.00000   0.00081   0.00081   0.00108
         Item               Value     Threshold  Converged?
 Maximum Force            0.017332     0.000450     NO 
 RMS     Force            0.005848     0.000300     NO 
 Maximum Displacement     0.063541     0.001800     NO 
 RMS     Displacement     0.022917     0.001200     NO 
 Predicted change in Energy=-2.566519D-03
 GradGradGradGradGradGradGradGradGradGradGradGradGradGradGradGradGradGrad

                          Input orientation:                          
 ---------------------------------------------------------------------
 Center     Atomic      Atomic             Coordinates (Angstroms)
 Number     Number       Type             X           Y           Z
 ---------------------------------------------------------------------
      1          6           0       -0.003446    0.005841    0.010980
      2          6           0       -0.006285    0.008155    1.485789
      3          1           0        1.050915    0.001031   -0.366993
      4          1           0       -0.520341    0.919060   -0.383732
      5          1           0       -0.531449   -0.900377   -0.380867
      6          6           0        0.323298   -1.070965    2.214535
      7          1           0       -0.292790    0.957340    1.966422
      8          6           0        0.326128   -1.074716    3.665527
      9          1           0        0.609818   -2.014270    1.716669
     10          6           0        0.682600   -2.139486    4.397322
     11          1           0        0.013352   -0.138923    4.162552
     12          1           0        0.999020   -3.087407    3.943441
     13          1           0        0.672110   -2.109836    5.495111
 ---------------------------------------------------------------------
                    Distance matrix (angstroms):
                    1          2          3          4          5
     1  C    0.000000
     2  C    1.474814   0.000000
     3  H    1.120073   2.133196   0.000000
     4  H    1.121136   2.142220   1.819863   0.000000
     5  H    1.119625   2.141409   1.821154   1.819473   0.000000
     6  C    2.474253   1.343204   2.888406   3.379780   2.737847
     7  H    2.193816   1.101837   2.857429   2.361455   3.002971
     8  C    3.825172   2.456495   4.236009   4.592183   4.139944
     9  H    2.714096   2.126756   2.932175   3.780656   2.634939
    10  C    4.930830   3.682926   5.236045   5.801744   5.083344
    11  H    4.154130   2.680873   4.648968   4.698175   4.638887
    12  H    5.102683   4.078381   5.302922   6.089717   5.081837
    13  H    5.916769   4.584841   6.242076   6.719891   6.118697
                    6          7          8          9         10
     6  C    0.000000
     7  H    2.134278   0.000000
     8  C    1.451000   2.720160   0.000000
     9  H    1.104440   3.115693   2.182038   0.000000
    10  C    2.456703   4.055982   1.340272   2.684562   0.000000
    11  H    2.181637   2.473560   1.104795   3.139274   2.122560
    12  H    2.740758   4.683733   2.140314   2.502322   1.097581
    13  H    3.458771   4.773913   2.130388   3.780163   1.098239
                   11         12         13
    11  H    0.000000
    12  H    3.116586   0.000000
    13  H    2.468638   1.862846   0.000000
 Stoichiometry    C5H8
 Framework group  C1[X(C5H8)]
 Deg. of freedom    33
 Full point group                 C1      NOp   1
 Largest Abelian subgroup         C1      NOp   1
 Largest concise Abelian subgroup C1      NOp   1
                         Standard orientation:                         
 ---------------------------------------------------------------------
 Center     Atomic      Atomic             Coordinates (Angstroms)
 Number     Number       Type             X           Y           Z
 ---------------------------------------------------------------------
      1          6           0        2.429700   -0.230268    0.002992
      2          6           0        1.114213    0.436493    0.003123
      3          1           0        2.621684   -0.692232    1.005138
      4          1           0        3.244413    0.509471   -0.211423
      5          1           0        2.462471   -1.033081   -0.776737
      6          6           0       -0.044483   -0.242788   -0.010955
      7          1           0        1.131417    1.538061    0.020357
      8          6           0       -1.342077    0.406546   -0.007310
      9          1           0       -0.043778   -1.347120   -0.026406
     10          6           0       -2.500994   -0.266500    0.008600
     11          1           0       -1.341682    1.511277   -0.019155
     12          1           0       -2.545613   -1.363111    0.020281
     13          1           0       -3.467064    0.255840    0.009235
 ---------------------------------------------------------------------
 Rotational constants (GHZ):     27.4521567      2.2025623      2.0669306
 Standard basis: VSTO-6G (5D, 7F)
 There are    28 symmetry adapted cartesian basis functions of A   symmetry.
 There are    28 symmetry adapted basis functions of A   symmetry.
    28 basis functions,   168 primitive gaussians,    28 cartesian basis functions
    14 alpha electrons       14 beta electrons
       nuclear repulsion energy        99.4712824345 Hartrees.
 Integral buffers will be    131072 words long.
 Regular integral format.
 Two-electron integral symmetry is turned off.
 Do NDO integrals.
 One-electron integrals computed using PRISM.
 NBasis=    28 RedAO= F EigKep=  0.00D+00  NBF=    28
 NBsUse=    28 1.00D-04 EigRej=  0.00D+00 NBFU=    28
 Initial guess from the checkpoint file:  "/blue/chm6586/le.chen/hw2/homo/Gau-69765.chk"
 B after Tr=     0.000000    0.000000    0.000000
         Rot=    0.999998    0.001408    0.000016    0.001388 Ang=   0.23 deg.
 Overlap will be assumed to be unity.
 Keep J ints in memory in canonical form, NReq=891302.
 Requested convergence on RMS density matrix=1.00D-08 within 128 cycles.
 Requested convergence on MAX density matrix=1.00D-06.
 Requested convergence on             energy=1.00D-06.
 No special actions if energy rises.
 SCF Done:  E(RAM1) =  0.322888344228E-01 A.U. after   11 cycles
            NFock= 10  Conv=0.26D-08     -V/T= 1.0019
 Calling FoFJK, ICntrl=      2127 FMM=F ISym2X=0 I1Cent= 0 IOpClX= 0 NMat=1 NMatS=1 NMatT=0.
 ***** Axes restored to original set *****
 -------------------------------------------------------------------
 Center     Atomic                   Forces (Hartrees/Bohr)
 Number     Number              X              Y              Z
 -------------------------------------------------------------------
      1        6          -0.001518664    0.001980040   -0.000041670
      2        6           0.000908625   -0.003166466    0.002653072
      3        1          -0.001127401   -0.000108858   -0.001060504
      4        1           0.001349591   -0.002335486   -0.000248039
      5        1           0.001151398    0.000920886   -0.001082807
      6        6          -0.001090075    0.003337217    0.001336921
      7        1           0.000197082   -0.000152061    0.000597413
      8        6           0.001940958   -0.005676434    0.001739669
      9        1          -0.000167958    0.000293662    0.000963330
     10        6          -0.002214553    0.006131796   -0.003755142
     11        1           0.000114300   -0.000153896   -0.001224010
     12        1           0.000017659    0.000033354    0.000986709
     13        1           0.000439040   -0.001103754   -0.000864941
 -------------------------------------------------------------------
 Cartesian Forces:  Max     0.006131796 RMS     0.001981153

 GradGradGradGradGradGradGradGradGradGradGradGradGradGradGradGradGradGrad
 Berny optimization.
 Using GEDIIS/GDIIS optimizer.
 FormGI is forming the generalized inverse of G from B-inverse, IUseBI=4.
 Internal  Forces:  Max     0.006472364 RMS     0.001435000
 Search for a local minimum.
 Step number   2 out of a maximum of   58
 All quantities printed in internal units (Hartrees-Bohrs-Radians)
 Mixed Optimization -- RFO/linear search
 Update second derivatives using D2CorX and points    1    2
 DE= -2.30D-03 DEPred=-2.57D-03 R= 8.97D-01
 TightC=F SS=  1.41D+00  RLast= 1.34D-01 DXNew= 5.0454D-01 4.0271D-01
 Trust test= 8.97D-01 RLast= 1.34D-01 DXMaxT set to 4.03D-01
 ITU=  1  0
 Use linear search instead of GDIIS.
     Eigenvalues ---    0.00849   0.01528   0.01705   0.02220   0.02239
     Eigenvalues ---    0.02861   0.02902   0.02903   0.07346   0.07454
     Eigenvalues ---    0.15028   0.16000   0.16000   0.16000   0.16000
     Eigenvalues ---    0.16000   0.16000   0.16409   0.21942   0.22000
     Eigenvalues ---    0.22054   0.33096   0.33981   0.34315   0.34826
     Eigenvalues ---    0.35019   0.35044   0.35250   0.35370   0.36215
     Eigenvalues ---    0.41169   0.57001   0.60699
 RFO step:  Lambda=-2.43231514D-04 EMin= 8.49378994D-03
 Quartic linear search produced a step of -0.07129.
 Iteration  1 RMS(Cart)=  0.01025189 RMS(Int)=  0.00007148
 Iteration  2 RMS(Cart)=  0.00007155 RMS(Int)=  0.00001257
 Iteration  3 RMS(Cart)=  0.00000000 RMS(Int)=  0.00001257
 Variable       Old X    -DE/DX   Delta X   Delta X   Delta X     New X
                                 (Linear)    (Quad)   (Total)
    R1        2.78699   0.00243   0.00253   0.00267   0.00520   2.79219
    R2        2.11663  -0.00070  -0.00349   0.00385   0.00035   2.11698
    R3        2.11864  -0.00244  -0.00355  -0.00076  -0.00431   2.11433
    R4        2.11578  -0.00091  -0.00338   0.00311  -0.00028   2.11551
    R5        2.53829  -0.00298  -0.00024  -0.00446  -0.00470   2.53358
    R6        2.08217   0.00008  -0.00196   0.00344   0.00147   2.08364
    R7        2.74199  -0.00312  -0.00117  -0.00544  -0.00661   2.73538
    R8        2.08709  -0.00073  -0.00218   0.00165  -0.00053   2.08656
    R9        2.53275  -0.00647  -0.00024  -0.01004  -0.01028   2.52247
   R10        2.08776  -0.00071  -0.00228   0.00187  -0.00042   2.08734
   R11        2.07413  -0.00043  -0.00168   0.00163  -0.00005   2.07408
   R12        2.07537  -0.00090  -0.00174   0.00051  -0.00123   2.07414
    A1        1.91694   0.00134   0.00098   0.00554   0.00651   1.92345
    A2        1.92826   0.00119  -0.00076   0.00865   0.00785   1.93610
    A3        1.92873   0.00164   0.00096   0.00805   0.00899   1.93772
    A4        1.89514  -0.00132  -0.00080  -0.00658  -0.00741   1.88773
    A5        1.89900  -0.00174   0.00071  -0.01228  -0.01157   1.88744
    A6        1.89510  -0.00123  -0.00117  -0.00405  -0.00527   1.88983
    A7        2.14219   0.00147   0.00029   0.00574   0.00603   2.14822
    A8        2.02424  -0.00009   0.00077  -0.00058   0.00018   2.02442
    A9        2.11674  -0.00139  -0.00105  -0.00517  -0.00622   2.11052
   A10        2.14730   0.00020  -0.00027   0.00127   0.00100   2.14830
   A11        2.10048   0.00064  -0.00094   0.00541   0.00447   2.10496
   A12        2.03540  -0.00084   0.00121  -0.00668  -0.00547   2.02993
   A13        2.15145   0.00012  -0.00038   0.00115   0.00077   2.15222
   A14        2.03436  -0.00112   0.00175  -0.00923  -0.00748   2.02688
   A15        2.09737   0.00099  -0.00137   0.00808   0.00671   2.10409
   A16        2.13768   0.00042  -0.00036   0.00304   0.00268   2.14036
   A17        2.11975   0.00099  -0.00125   0.00779   0.00654   2.12628
   A18        2.02576  -0.00142   0.00161  -0.01083  -0.00922   2.01654
    D1       -1.26949  -0.00003  -0.00058  -0.01056  -0.01112  -1.28061
    D2        1.86727  -0.00008  -0.00023  -0.01323  -0.01346   1.85381
    D3        2.92351   0.00000   0.00027  -0.01137  -0.01109   2.91242
    D4       -0.22292  -0.00004   0.00062  -0.01405  -0.01342  -0.23634
    D5        0.82579  -0.00029   0.00160  -0.01715  -0.01557   0.81022
    D6       -2.32064  -0.00034   0.00195  -0.01983  -0.01791  -2.33855
    D7        3.13863  -0.00013   0.00037  -0.00504  -0.00467   3.13396
    D8       -0.00323  -0.00013   0.00094  -0.00613  -0.00518  -0.00841
    D9        0.00212  -0.00008   0.00001  -0.00224  -0.00224  -0.00011
   D10       -3.13973  -0.00009   0.00058  -0.00333  -0.00275   3.14070
   D11       -3.11491  -0.00004   0.00049  -0.00314  -0.00265  -3.11756
   D12        0.02738  -0.00006   0.00046  -0.00414  -0.00368   0.02369
   D13        0.02694  -0.00003  -0.00007  -0.00209  -0.00216   0.02478
   D14       -3.11396  -0.00006  -0.00010  -0.00309  -0.00319  -3.11715
   D15        0.00027   0.00001   0.00026  -0.00016   0.00010   0.00037
   D16       -3.13979  -0.00007  -0.00009  -0.00226  -0.00236   3.14103
   D17        3.14115   0.00004   0.00030   0.00087   0.00117  -3.14087
   D18        0.00108  -0.00005  -0.00006  -0.00123  -0.00129  -0.00020
         Item               Value     Threshold  Converged?
 Maximum Force            0.006472     0.000450     NO 
 RMS     Force            0.001435     0.000300     NO 
 Maximum Displacement     0.029273     0.001800     NO 
 RMS     Displacement     0.010261     0.001200     NO 
 Predicted change in Energy=-1.363976D-04
 GradGradGradGradGradGradGradGradGradGradGradGradGradGradGradGradGradGrad

                          Input orientation:                          
 ---------------------------------------------------------------------
 Center     Atomic      Atomic             Coordinates (Angstroms)
 Number     Number       Type             X           Y           Z
 ---------------------------------------------------------------------
      1          6           0       -0.004212    0.008138    0.012108
      2          6           0       -0.006278    0.003404    1.489664
      3          1           0        1.047621    0.016522   -0.373325
      4          1           0       -0.528481    0.913096   -0.385424
      5          1           0       -0.516715   -0.900902   -0.393129
      6          6           0        0.321438   -1.073105    2.218531
      7          1           0       -0.290184    0.951624    1.975504
      8          6           0        0.328305   -1.075158    3.666016
      9          1           0        0.604122   -2.020300    1.726508
     10          6           0        0.679351   -2.136156    4.395964
     11          1           0        0.021947   -0.133443    4.155304
     12          1           0        0.989838   -3.087771    3.945792
     13          1           0        0.676180   -2.110501    5.493246
 ---------------------------------------------------------------------
                    Distance matrix (angstroms):
                    1          2          3          4          5
     1  C    0.000000
     2  C    1.477565   0.000000
     3  H    1.120260   2.140468   0.000000
     4  H    1.118855   2.148532   1.813309   0.000000
     5  H    1.119477   2.150168   1.813616   1.814052   0.000000
     6  C    2.478596   1.340715   2.903850   3.383480   2.748258
     7  H    2.197014   1.102617   2.860269   2.373236   3.015558
     8  C    3.825591   2.451887   4.245640   4.593626   4.149829
     9  H    2.724665   2.126984   2.958823   3.787856   2.646164
    10  C    4.927824   3.673471   5.245547   5.798144   5.088403
    11  H    4.145697   2.669300   4.645749   4.692167   4.644071
    12  H    5.103593   4.071876   5.319280   6.088650   5.087075
    13  H    5.915610   4.578538   6.251308   6.719532   6.126625
                    6          7          8          9         10
     6  C    0.000000
     7  H    2.129007   0.000000
     8  C    1.447503   2.710757   0.000000
     9  H    1.104162   3.113537   2.175100   0.000000
    10  C    2.449366   4.041412   1.334831   2.673028   0.000000
    11  H    2.173419   2.454857   1.104575   3.130209   2.121546
    12  H    2.736616   4.673029   2.136940   2.492688   1.097556
    13  H    3.453374   4.762875   2.128784   3.768507   1.097586
                   11         12         13
    11  H    0.000000
    12  H    3.115889   0.000000
    13  H    2.475251   1.856893   0.000000
 Stoichiometry    C5H8
 Framework group  C1[X(C5H8)]
 Deg. of freedom    33
 Full point group                 C1      NOp   1
 Largest Abelian subgroup         C1      NOp   1
 Largest concise Abelian subgroup C1      NOp   1
                         Standard orientation:                         
 ---------------------------------------------------------------------
 Center     Atomic      Atomic             Coordinates (Angstroms)
 Number     Number       Type             X           Y           Z
 ---------------------------------------------------------------------
      1          6           0        2.430855   -0.227086    0.004067
      2          6           0        1.109534    0.434198    0.000358
      3          1           0        2.635812   -0.676467    1.009567
      4          1           0        3.245236    0.505792   -0.222891
      5          1           0        2.472470   -1.045552   -0.758567
      6          6           0       -0.047640   -0.242791   -0.011881
      7          1           0        1.120907    1.536653    0.015436
      8          6           0       -1.342168    0.404843   -0.006258
      9          1           0       -0.052885   -1.346826   -0.027814
     10          6           0       -2.496824   -0.264732    0.008422
     11          1           0       -1.333616    1.509353   -0.014549
     12          1           0       -2.545117   -1.361185    0.017658
     13          1           0       -3.465346    0.251641    0.012903
 ---------------------------------------------------------------------
 Rotational constants (GHZ):     27.6044893      2.2049236      2.0696271
 Standard basis: VSTO-6G (5D, 7F)
 There are    28 symmetry adapted cartesian basis functions of A   symmetry.
 There are    28 symmetry adapted basis functions of A   symmetry.
    28 basis functions,   168 primitive gaussians,    28 cartesian basis functions
    14 alpha electrons       14 beta electrons
       nuclear repulsion energy        99.5151031120 Hartrees.
 Integral buffers will be    131072 words long.
 Regular integral format.
 Two-electron integral symmetry is turned off.
 Do NDO integrals.
 One-electron integrals computed using PRISM.
 NBasis=    28 RedAO= F EigKep=  0.00D+00  NBF=    28
 NBsUse=    28 1.00D-04 EigRej=  0.00D+00 NBFU=    28
 Initial guess from the checkpoint file:  "/blue/chm6586/le.chen/hw2/homo/Gau-69765.chk"
 B after Tr=     0.000000    0.000000    0.000000
         Rot=    0.999998    0.001757   -0.000049   -0.000185 Ang=   0.20 deg.
 Overlap will be assumed to be unity.
 Keep J ints in memory in canonical form, NReq=891302.
 Requested convergence on RMS density matrix=1.00D-08 within 128 cycles.
 Requested convergence on MAX density matrix=1.00D-06.
 Requested convergence on             energy=1.00D-06.
 No special actions if energy rises.
 SCF Done:  E(RAM1) =  0.321503125565E-01 A.U. after   10 cycles
            NFock=  9  Conv=0.72D-08     -V/T= 1.0019
 Calling FoFJK, ICntrl=      2127 FMM=F ISym2X=0 I1Cent= 0 IOpClX= 0 NMat=1 NMatS=1 NMatT=0.
 ***** Axes restored to original set *****
 -------------------------------------------------------------------
 Center     Atomic                   Forces (Hartrees/Bohr)
 Number     Number              X              Y              Z
 -------------------------------------------------------------------
      1        6          -0.000505719    0.000481394    0.000939627
      2        6           0.000031088    0.000075483   -0.001923378
      3        1          -0.000564737    0.000037454    0.000081248
      4        1           0.000389847   -0.000858893    0.000389519
      5        1           0.000595044    0.000484771    0.000107111
      6        6          -0.000314097    0.000309320   -0.001424480
      7        1           0.000198099   -0.000110849   -0.000164351
      8        6          -0.000071964    0.000299742    0.001081961
      9        1          -0.000049899    0.000159785    0.000119331
     10        6           0.000037310   -0.000037437    0.000665621
     11        1           0.000027198   -0.000003896   -0.000195826
     12        1           0.000046520   -0.000237881    0.000484822
     13        1           0.000181309   -0.000598993   -0.000161204
 -------------------------------------------------------------------
 Cartesian Forces:  Max     0.001923378 RMS     0.000551261

 GradGradGradGradGradGradGradGradGradGradGradGradGradGradGradGradGradGrad
 Berny optimization.
 Using GEDIIS/GDIIS optimizer.
 FormGI is forming the generalized inverse of G from B-inverse, IUseBI=4.
 Internal  Forces:  Max     0.001877216 RMS     0.000498509
 Search for a local minimum.
 Step number   3 out of a maximum of   58
 All quantities printed in internal units (Hartrees-Bohrs-Radians)
 Mixed Optimization -- En-DIIS/RFO-DIIS
 Update second derivatives using D2CorX and points    1    2    3
 DE= -1.39D-04 DEPred=-1.36D-04 R= 1.02D+00
 TightC=F SS=  1.41D+00  RLast= 4.76D-02 DXNew= 6.7728D-01 1.4267D-01
 Trust test= 1.02D+00 RLast= 4.76D-02 DXMaxT set to 4.03D-01
 ITU=  1  1  0
 Use linear search instead of GDIIS.
     Eigenvalues ---    0.00773   0.01523   0.01703   0.02224   0.02244
     Eigenvalues ---    0.02848   0.02902   0.02905   0.07166   0.07376
     Eigenvalues ---    0.12348   0.16000   0.16000   0.16000   0.16000
     Eigenvalues ---    0.16000   0.16056   0.16552   0.21509   0.22000
     Eigenvalues ---    0.22197   0.33741   0.34311   0.34526   0.34748
     Eigenvalues ---    0.35031   0.35155   0.35323   0.35364   0.36760
     Eigenvalues ---    0.43288   0.56973   0.73565
 RFO step:  Lambda=-5.28142125D-05 EMin= 7.73103824D-03
 Quartic linear search produced a step of  0.01956.
 Iteration  1 RMS(Cart)=  0.01029936 RMS(Int)=  0.00007421
 Iteration  2 RMS(Cart)=  0.00007839 RMS(Int)=  0.00000124
 Iteration  3 RMS(Cart)=  0.00000000 RMS(Int)=  0.00000124
 Variable       Old X    -DE/DX   Delta X   Delta X   Delta X     New X
                                 (Linear)    (Quad)   (Total)
    R1        2.79219  -0.00152   0.00010  -0.00409  -0.00399   2.78820
    R2        2.11698  -0.00056   0.00001  -0.00108  -0.00108   2.11591
    R3        2.11433  -0.00102  -0.00008  -0.00331  -0.00340   2.11093
    R4        2.11551  -0.00070  -0.00001  -0.00166  -0.00166   2.11384
    R5        2.53358   0.00036  -0.00009  -0.00019  -0.00028   2.53330
    R6        2.08364  -0.00022   0.00003  -0.00007  -0.00004   2.08360
    R7        2.73538   0.00188  -0.00013   0.00383   0.00370   2.73908
    R8        2.08656  -0.00020  -0.00001  -0.00037  -0.00038   2.08618
    R9        2.52247   0.00131  -0.00020   0.00043   0.00023   2.52270
   R10        2.08734  -0.00010  -0.00001  -0.00003  -0.00003   2.08731
   R11        2.07408   0.00002   0.00000   0.00030   0.00030   2.07438
   R12        2.07414  -0.00018  -0.00002  -0.00048  -0.00051   2.07363
    A1        1.92345   0.00012   0.00013   0.00159   0.00172   1.92517
    A2        1.93610  -0.00008   0.00015   0.00121   0.00136   1.93746
    A3        1.93772   0.00022   0.00018   0.00296   0.00314   1.94085
    A4        1.88773  -0.00003  -0.00014  -0.00155  -0.00170   1.88603
    A5        1.88744  -0.00023  -0.00023  -0.00404  -0.00427   1.88317
    A6        1.88983   0.00000  -0.00010  -0.00045  -0.00056   1.88927
    A7        2.14822   0.00041   0.00012   0.00299   0.00311   2.15133
    A8        2.02442  -0.00028   0.00000  -0.00154  -0.00153   2.02289
    A9        2.11052  -0.00013  -0.00012  -0.00145  -0.00157   2.10895
   A10        2.14830   0.00042   0.00002   0.00217   0.00219   2.15048
   A11        2.10496  -0.00018   0.00009   0.00022   0.00031   2.10526
   A12        2.02993  -0.00024  -0.00011  -0.00238  -0.00249   2.02744
   A13        2.15222   0.00056   0.00002   0.00280   0.00281   2.15503
   A14        2.02688  -0.00046  -0.00015  -0.00409  -0.00423   2.02265
   A15        2.10409  -0.00010   0.00013   0.00129   0.00142   2.10551
   A16        2.14036   0.00032   0.00005   0.00258   0.00264   2.14300
   A17        2.12628   0.00049   0.00013   0.00451   0.00464   2.13092
   A18        2.01654  -0.00080  -0.00018  -0.00709  -0.00727   2.00927
    D1       -1.28061  -0.00013  -0.00022  -0.01849  -0.01871  -1.29931
    D2        1.85381  -0.00011  -0.00026  -0.01805  -0.01831   1.83550
    D3        2.91242  -0.00011  -0.00022  -0.01836  -0.01858   2.89385
    D4       -0.23634  -0.00010  -0.00026  -0.01792  -0.01818  -0.25453
    D5        0.81022  -0.00020  -0.00030  -0.02058  -0.02089   0.78932
    D6       -2.33855  -0.00018  -0.00035  -0.02015  -0.02050  -2.35905
    D7        3.13396  -0.00003  -0.00009  -0.00162  -0.00171   3.13225
    D8       -0.00841  -0.00003  -0.00010  -0.00200  -0.00210  -0.01052
    D9       -0.00011  -0.00004  -0.00004  -0.00208  -0.00212  -0.00223
   D10        3.14070  -0.00005  -0.00005  -0.00246  -0.00251   3.13819
   D11       -3.11756  -0.00005  -0.00005  -0.00349  -0.00354  -3.12110
   D12        0.02369  -0.00004  -0.00007  -0.00333  -0.00341   0.02029
   D13        0.02478  -0.00004  -0.00004  -0.00312  -0.00317   0.02162
   D14       -3.11715  -0.00003  -0.00006  -0.00297  -0.00303  -3.12018
   D15        0.00037  -0.00002   0.00000  -0.00083  -0.00083  -0.00045
   D16        3.14103   0.00002  -0.00005   0.00018   0.00013   3.14117
   D17       -3.14087  -0.00003   0.00002  -0.00099  -0.00096   3.14135
   D18       -0.00020   0.00001  -0.00003   0.00002  -0.00001  -0.00021
         Item               Value     Threshold  Converged?
 Maximum Force            0.001877     0.000450     NO 
 RMS     Force            0.000499     0.000300     NO 
 Maximum Displacement     0.036553     0.001800     NO 
 RMS     Displacement     0.010300     0.001200     NO 
 Predicted change in Energy=-2.653919D-05
 GradGradGradGradGradGradGradGradGradGradGradGradGradGradGradGradGradGrad

                          Input orientation:                          
 ---------------------------------------------------------------------
 Center     Atomic      Atomic             Coordinates (Angstroms)
 Number     Number       Type             X           Y           Z
 ---------------------------------------------------------------------
      1          6           0       -0.004970    0.009921    0.011823
      2          6           0       -0.004638    0.003050    1.487260
      3          1           0        1.044782    0.035865   -0.376836
      4          1           0       -0.543181    0.905011   -0.384359
      5          1           0       -0.500328   -0.905956   -0.396896
      6          6           0        0.320861   -1.073053    2.217443
      7          1           0       -0.285940    0.951859    1.973412
      8          6           0        0.331681   -1.075368    3.666860
      9          1           0        0.598878   -2.022242    1.727060
     10          6           0        0.676707   -2.137040    4.398921
     11          1           0        0.032484   -0.129700    4.152902
     12          1           0        0.979390   -3.093425    3.953181
     13          1           0        0.677206   -2.113474    5.495985
 ---------------------------------------------------------------------
                    Distance matrix (angstroms):
                    1          2          3          4          5
     1  C    0.000000
     2  C    1.475453   0.000000
     3  H    1.119691   2.139442   0.000000
     4  H    1.117057   2.146280   1.810276   0.000000
     5  H    1.118598   2.149894   1.809639   1.811517   0.000000
     6  C    2.478661   1.340565   2.912738   3.380633   2.745367
     7  H    2.194088   1.102594   2.851935   2.372225   3.019239
     8  C    3.827594   2.454944   4.253801   4.593436   4.151512
     9  H    2.726969   2.126863   2.976745   3.785657   2.639231
    10  C    4.931607   3.677225   5.259738   5.798445   5.089287
    11  H    4.143601   2.669203   4.644424   4.689216   4.646194
    12  H    5.112144   4.078877   5.342824   6.092615   5.088984
    13  H    5.920321   4.584154   6.264567   6.721535   6.129497
                    6          7          8          9         10
     6  C    0.000000
     7  H    2.127916   0.000000
     8  C    1.449459   2.712724   0.000000
     9  H    1.103961   3.112695   2.175037   0.000000
    10  C    2.453067   4.043646   1.334954   2.675458   0.000000
    11  H    2.172344   2.453841   1.104556   3.128454   2.122490
    12  H    2.743783   4.678126   2.138705   2.499567   1.097713
    13  H    3.458077   4.767854   2.131373   3.770843   1.097318
                   11         12         13
    11  H    0.000000
    12  H    3.117721   0.000000
    13  H    2.480907   1.852529   0.000000
 Stoichiometry    C5H8
 Framework group  C1[X(C5H8)]
 Deg. of freedom    33
 Full point group                 C1      NOp   1
 Largest Abelian subgroup         C1      NOp   1
 Largest concise Abelian subgroup C1      NOp   1
                         Standard orientation:                         
 ---------------------------------------------------------------------
 Center     Atomic      Atomic             Coordinates (Angstroms)
 Number     Number       Type             X           Y           Z
 ---------------------------------------------------------------------
      1          6           0        2.431947   -0.225809    0.004118
      2          6           0        1.111365    0.432217   -0.001019
      3          1           0        2.647883   -0.655754    1.015170
      4          1           0        3.242799    0.501603   -0.243280
      5          1           0        2.471045   -1.060276   -0.739789
      6          6           0       -0.046606   -0.243146   -0.011245
      7          1           0        1.122512    1.534690    0.010817
      8          6           0       -1.343418    0.404287   -0.004954
      9          1           0       -0.053693   -1.346982   -0.026320
     10          6           0       -2.499518   -0.263076    0.007746
     11          1           0       -1.331094    1.508757   -0.011138
     12          1           0       -2.552904   -1.359472    0.013986
     13          1           0       -3.469169    0.250597    0.012677
 ---------------------------------------------------------------------
 Rotational constants (GHZ):     27.6998891      2.2009885      2.0665534
 Standard basis: VSTO-6G (5D, 7F)
 There are    28 symmetry adapted cartesian basis functions of A   symmetry.
 There are    28 symmetry adapted basis functions of A   symmetry.
    28 basis functions,   168 primitive gaussians,    28 cartesian basis functions
    14 alpha electrons       14 beta electrons
       nuclear repulsion energy        99.4993508181 Hartrees.
 Integral buffers will be    131072 words long.
 Regular integral format.
 Two-electron integral symmetry is turned off.
 Do NDO integrals.
 One-electron integrals computed using PRISM.
 NBasis=    28 RedAO= F EigKep=  0.00D+00  NBF=    28
 NBsUse=    28 1.00D-04 EigRej=  0.00D+00 NBFU=    28
 Initial guess from the checkpoint file:  "/blue/chm6586/le.chen/hw2/homo/Gau-69765.chk"
 B after Tr=     0.000000    0.000000    0.000000
         Rot=    0.999998    0.002209   -0.000098    0.000082 Ang=   0.25 deg.
 Overlap will be assumed to be unity.
 Keep J ints in memory in canonical form, NReq=891302.
 Requested convergence on RMS density matrix=1.00D-08 within 128 cycles.
 Requested convergence on MAX density matrix=1.00D-06.
 Requested convergence on             energy=1.00D-06.
 No special actions if energy rises.
 SCF Done:  E(RAM1) =  0.321180970673E-01 A.U. after   10 cycles
            NFock=  9  Conv=0.52D-08     -V/T= 1.0019
 Calling FoFJK, ICntrl=      2127 FMM=F ISym2X=0 I1Cent= 0 IOpClX= 0 NMat=1 NMatS=1 NMatT=0.
 ***** Axes restored to original set *****
 -------------------------------------------------------------------
 Center     Atomic                   Forces (Hartrees/Bohr)
 Number     Number              X              Y              Z
 -------------------------------------------------------------------
      1        6           0.000027686   -0.000256230   -0.000356601
      2        6          -0.000066033    0.000210542    0.000029800
      3        1           0.000137187    0.000158986    0.000132196
      4        1          -0.000296803    0.000205544    0.000072014
      5        1           0.000083798   -0.000143542    0.000089059
      6        6          -0.000062978   -0.000550832    0.000268704
      7        1           0.000226026    0.000077346   -0.000017911
      8        6          -0.000173035    0.000528786   -0.000320625
      9        1           0.000021719    0.000073030   -0.000013451
     10        6           0.000015355   -0.000187333    0.000003029
     11        1           0.000071413   -0.000098530    0.000074723
     12        1           0.000012672   -0.000023485    0.000024354
     13        1           0.000002994    0.000005718    0.000014710
 -------------------------------------------------------------------
 Cartesian Forces:  Max     0.000550832 RMS     0.000188682

 GradGradGradGradGradGradGradGradGradGradGradGradGradGradGradGradGradGrad
 Berny optimization.
 Using GEDIIS/GDIIS optimizer.
 FormGI is forming the generalized inverse of G from B-inverse, IUseBI=4.
 Internal  Forces:  Max     0.000282163 RMS     0.000115603
 Search for a local minimum.
 Step number   4 out of a maximum of   58
 All quantities printed in internal units (Hartrees-Bohrs-Radians)
 Mixed Optimization -- En-DIIS/RFO-DIIS
 Swapping is turned off.
 Update second derivatives using D2CorX and points    1    2    3    4
 DE= -3.22D-05 DEPred=-2.65D-05 R= 1.21D+00
 TightC=F SS=  1.41D+00  RLast= 5.00D-02 DXNew= 6.7728D-01 1.4992D-01
 Trust test= 1.21D+00 RLast= 5.00D-02 DXMaxT set to 4.03D-01
 ITU=  1  1  1  0
     Eigenvalues ---    0.00399   0.01515   0.01703   0.02225   0.02246
     Eigenvalues ---    0.02862   0.02902   0.02906   0.07219   0.07384
     Eigenvalues ---    0.14727   0.16000   0.16000   0.16000   0.16000
     Eigenvalues ---    0.16030   0.16088   0.17538   0.21706   0.22006
     Eigenvalues ---    0.22910   0.34091   0.34308   0.34459   0.35000
     Eigenvalues ---    0.35035   0.35173   0.35356   0.35399   0.38708
     Eigenvalues ---    0.47313   0.57190   0.73294
 En-DIIS/RFO-DIIS IScMMF=        0 using points:     4    3
 RFO step:  Lambda=-2.63557133D-06.
 DidBck=F Rises=F RFO-DIIS coefs:    1.27725   -0.27725
 Iteration  1 RMS(Cart)=  0.01566109 RMS(Int)=  0.00018385
 Iteration  2 RMS(Cart)=  0.00019365 RMS(Int)=  0.00000049
 Iteration  3 RMS(Cart)=  0.00000003 RMS(Int)=  0.00000049
 Variable       Old X    -DE/DX   Delta X   Delta X   Delta X     New X
                                 (Linear)    (Quad)   (Total)
    R1        2.78820   0.00006  -0.00111  -0.00007  -0.00118   2.78703
    R2        2.11591   0.00009  -0.00030   0.00044   0.00015   2.11605
    R3        2.11093   0.00028  -0.00094   0.00018  -0.00077   2.11017
    R4        2.11384   0.00005  -0.00046   0.00011  -0.00036   2.11349
    R5        2.53330   0.00020  -0.00008  -0.00015  -0.00023   2.53307
    R6        2.08360   0.00000  -0.00001   0.00033   0.00032   2.08392
    R7        2.73908  -0.00020   0.00102  -0.00069   0.00034   2.73942
    R8        2.08618  -0.00005  -0.00011  -0.00015  -0.00025   2.08593
    R9        2.52270   0.00019   0.00006  -0.00076  -0.00070   2.52200
   R10        2.08731  -0.00007  -0.00001  -0.00013  -0.00014   2.08717
   R11        2.07438   0.00001   0.00008   0.00023   0.00032   2.07469
   R12        2.07363   0.00001  -0.00014  -0.00005  -0.00019   2.07344
    A1        1.92517  -0.00019   0.00048  -0.00047   0.00001   1.92518
    A2        1.93746  -0.00021   0.00038  -0.00050  -0.00012   1.93734
    A3        1.94085  -0.00008   0.00087   0.00107   0.00194   1.94279
    A4        1.88603   0.00018  -0.00047   0.00011  -0.00036   1.88568
    A5        1.88317   0.00016  -0.00118  -0.00086  -0.00204   1.88113
    A6        1.88927   0.00016  -0.00015   0.00063   0.00047   1.88974
    A7        2.15133   0.00003   0.00086   0.00144   0.00230   2.15363
    A8        2.02289  -0.00003  -0.00043  -0.00057  -0.00100   2.02189
    A9        2.10895   0.00001  -0.00044  -0.00087  -0.00131   2.10764
   A10        2.15048  -0.00016   0.00061  -0.00037   0.00024   2.15072
   A11        2.10526   0.00004   0.00008   0.00080   0.00089   2.10615
   A12        2.02744   0.00012  -0.00069  -0.00043  -0.00112   2.02631
   A13        2.15503  -0.00016   0.00078  -0.00028   0.00049   2.15553
   A14        2.02265   0.00020  -0.00117  -0.00039  -0.00156   2.02109
   A15        2.10551  -0.00004   0.00039   0.00067   0.00107   2.10657
   A16        2.14300   0.00005   0.00073   0.00123   0.00196   2.14496
   A17        2.13092  -0.00003   0.00129   0.00153   0.00282   2.13374
   A18        2.00927  -0.00002  -0.00202  -0.00277  -0.00478   2.00448
    D1       -1.29931  -0.00016  -0.00519  -0.02705  -0.03224  -1.33155
    D2        1.83550  -0.00017  -0.00508  -0.02737  -0.03245   1.80304
    D3        2.89385  -0.00013  -0.00515  -0.02657  -0.03171   2.86213
    D4       -0.25453  -0.00014  -0.00504  -0.02689  -0.03193  -0.28646
    D5        0.78932  -0.00014  -0.00579  -0.02774  -0.03354   0.75579
    D6       -2.35905  -0.00014  -0.00568  -0.02807  -0.03375  -2.39281
    D7        3.13225   0.00000  -0.00047  -0.00100  -0.00148   3.13077
    D8       -0.01052   0.00000  -0.00058  -0.00093  -0.00152  -0.01203
    D9       -0.00223   0.00000  -0.00059  -0.00067  -0.00126  -0.00349
   D10        3.13819   0.00000  -0.00070  -0.00060  -0.00129   3.13689
   D11       -3.12110  -0.00003  -0.00098  -0.00358  -0.00456  -3.12566
   D12        0.02029  -0.00003  -0.00094  -0.00380  -0.00474   0.01555
   D13        0.02162  -0.00003  -0.00088  -0.00365  -0.00453   0.01709
   D14       -3.12018  -0.00004  -0.00084  -0.00387  -0.00471  -3.12489
   D15       -0.00045   0.00000  -0.00023  -0.00004  -0.00027  -0.00072
   D16        3.14117  -0.00001   0.00004  -0.00049  -0.00046   3.14071
   D17        3.14135   0.00001  -0.00027   0.00019  -0.00008   3.14127
   D18       -0.00021   0.00000   0.00000  -0.00026  -0.00027  -0.00048
         Item               Value     Threshold  Converged?
 Maximum Force            0.000282     0.000450     YES
 RMS     Force            0.000116     0.000300     YES
 Maximum Displacement     0.055970     0.001800     NO 
 RMS     Displacement     0.015663     0.001200     NO 
 Predicted change in Energy=-1.399078D-05
 GradGradGradGradGradGradGradGradGradGradGradGradGradGradGradGradGradGrad

                          Input orientation:                          
 ---------------------------------------------------------------------
 Center     Atomic      Atomic             Coordinates (Angstroms)
 Number     Number       Type             X           Y           Z
 ---------------------------------------------------------------------
      1          6           0       -0.005451    0.010743    0.011499
      2          6           0       -0.001245    0.002622    1.486301
      3          1           0        1.042306    0.065483   -0.379768
      4          1           0       -0.568089    0.891261   -0.382251
      5          1           0       -0.475172   -0.917621   -0.398796
      6          6           0        0.320172   -1.074042    2.217244
      7          1           0       -0.276375    0.953115    1.973079
      8          6           0        0.335687   -1.074269    3.666798
      9          1           0        0.591071   -2.026007    1.728563
     10          6           0        0.671753   -2.137747    4.399734
     11          1           0        0.047955   -0.124071    4.150752
     12          1           0        0.963096   -3.099185    3.956905
     13          1           0        0.677225   -2.114834    5.496697
 ---------------------------------------------------------------------
                    Distance matrix (angstroms):
                    1          2          3          4          5
     1  C    0.000000
     2  C    1.474831   0.000000
     3  H    1.119768   2.138963   0.000000
     4  H    1.116652   2.145338   1.809775   0.000000
     5  H    1.118410   2.150592   1.808202   1.811343   0.000000
     6  C    2.479536   1.340444   2.926510   3.377690   2.738742
     7  H    2.193003   1.102763   2.839489   2.374131   3.027370
     8  C    3.828164   2.455155   4.262985   4.590742   4.148625
     9  H    2.729927   2.127173   3.003831   3.782808   2.625081
    10  C    4.932669   3.677254   5.275905   5.794780   5.082326
    11  H    4.141793   2.667915   4.642228   4.685993   4.647771
    12  H    5.116246   4.081060   5.369183   6.090686   5.079367
    13  H    5.922122   4.585545   6.278528   6.719333   6.125209
                    6          7          8          9         10
     6  C    0.000000
     7  H    2.127170   0.000000
     8  C    1.449637   2.711751   0.000000
     9  H    1.103827   3.112462   2.174346   0.000000
    10  C    2.453231   4.042404   1.334586   2.674725   0.000000
    11  H    2.171406   2.451078   1.104481   3.127193   2.122735
    12  H    2.746084   4.678995   2.139647   2.501125   1.097881
    13  H    3.459126   4.768391   2.132594   3.770166   1.097216
                   11         12         13
    11  H    0.000000
    12  H    3.118712   0.000000
    13  H    2.484086   1.849764   0.000000
 Stoichiometry    C5H8
 Framework group  C1[X(C5H8)]
 Deg. of freedom    33
 Full point group                 C1      NOp   1
 Largest Abelian subgroup         C1      NOp   1
 Largest concise Abelian subgroup C1      NOp   1
                         Standard orientation:                         
 ---------------------------------------------------------------------
 Center     Atomic      Atomic             Coordinates (Angstroms)
 Number     Number       Type             X           Y           Z
 ---------------------------------------------------------------------
      1          6           0        2.432611   -0.224922    0.004018
      2          6           0        1.111515    0.430660   -0.002539
      3          1           0        2.664216   -0.622146    1.025024
      4          1           0        3.238139    0.495221   -0.277815
      5          1           0        2.463809   -1.083727   -0.711748
      6          6           0       -0.046812   -0.243886   -0.010211
      7          1           0        1.121972    1.533339    0.006168
      8          6           0       -1.343497    0.404196   -0.003519
      9          1           0       -0.055630   -1.347599   -0.023383
     10          6           0       -2.499919   -0.261917    0.006632
     11          1           0       -1.328946    1.508576   -0.006945
     12          1           0       -2.556509   -1.358333    0.010037
     13          1           0       -3.470441    0.249881    0.012370
 ---------------------------------------------------------------------
 Rotational constants (GHZ):     27.7513588      2.1999564      2.0658688
 Standard basis: VSTO-6G (5D, 7F)
 There are    28 symmetry adapted cartesian basis functions of A   symmetry.
 There are    28 symmetry adapted basis functions of A   symmetry.
    28 basis functions,   168 primitive gaussians,    28 cartesian basis functions
    14 alpha electrons       14 beta electrons
       nuclear repulsion energy        99.4979429265 Hartrees.
 Integral buffers will be    131072 words long.
 Regular integral format.
 Two-electron integral symmetry is turned off.
 Do NDO integrals.
 One-electron integrals computed using PRISM.
 NBasis=    28 RedAO= F EigKep=  0.00D+00  NBF=    28
 NBsUse=    28 1.00D-04 EigRej=  0.00D+00 NBFU=    28
 Initial guess from the checkpoint file:  "/blue/chm6586/le.chen/hw2/homo/Gau-69765.chk"
 B after Tr=     0.000000    0.000000    0.000000
         Rot=    0.999994    0.003549   -0.000167    0.000032 Ang=   0.41 deg.
 Overlap will be assumed to be unity.
 Keep J ints in memory in canonical form, NReq=891302.
 Requested convergence on RMS density matrix=1.00D-08 within 128 cycles.
 Requested convergence on MAX density matrix=1.00D-06.
 Requested convergence on             energy=1.00D-06.
 No special actions if energy rises.
 SCF Done:  E(RAM1) =  0.320922132416E-01 A.U. after   10 cycles
            NFock=  9  Conv=0.77D-08     -V/T= 1.0019
 Calling FoFJK, ICntrl=      2127 FMM=F ISym2X=0 I1Cent= 0 IOpClX= 0 NMat=1 NMatS=1 NMatT=0.
 ***** Axes restored to original set *****
 -------------------------------------------------------------------
 Center     Atomic                   Forces (Hartrees/Bohr)
 Number     Number              X              Y              Z
 -------------------------------------------------------------------
      1        6           0.000289778   -0.000588752   -0.000734518
      2        6          -0.000149876    0.000435322    0.000516126
      3        1           0.000234141    0.000269292    0.000219313
      4        1          -0.000486463    0.000418944   -0.000017142
      5        1          -0.000071358   -0.000247023    0.000134836
      6        6           0.000003869   -0.000833308    0.000334176
      7        1           0.000273285    0.000106557   -0.000048175
      8        6          -0.000289186    0.000890585   -0.000628555
      9        1           0.000041617    0.000026391   -0.000152007
     10        6           0.000244433   -0.000860463    0.000261790
     11        1           0.000062286   -0.000099286    0.000251688
     12        1          -0.000037560    0.000130838   -0.000255583
     13        1          -0.000114967    0.000350903    0.000118051
 -------------------------------------------------------------------
 Cartesian Forces:  Max     0.000890585 RMS     0.000375274

 GradGradGradGradGradGradGradGradGradGradGradGradGradGradGradGradGradGrad
 Berny optimization.
 Using GEDIIS/GDIIS optimizer.
 FormGI is forming the generalized inverse of G from B-inverse, IUseBI=4.
 Internal  Forces:  Max     0.000581506 RMS     0.000215666
 Search for a local minimum.
 Step number   5 out of a maximum of   58
 All quantities printed in internal units (Hartrees-Bohrs-Radians)
 Mixed Optimization -- En-DIIS/RFO-DIIS
 Swapping is turned off.
 Update second derivatives using D2CorX and points    1    2    3    4    5
 DE= -2.59D-05 DEPred=-1.40D-05 R= 1.85D+00
 TightC=F SS=  1.41D+00  RLast= 8.08D-02 DXNew= 6.7728D-01 2.4253D-01
 Trust test= 1.85D+00 RLast= 8.08D-02 DXMaxT set to 4.03D-01
 ITU=  1  1  1  1  0
     Eigenvalues ---    0.00037   0.01522   0.01704   0.02226   0.02248
     Eigenvalues ---    0.02878   0.02904   0.02908   0.07265   0.07442
     Eigenvalues ---    0.15929   0.15968   0.16000   0.16000   0.16000
     Eigenvalues ---    0.16058   0.16556   0.19864   0.22001   0.22410
     Eigenvalues ---    0.26328   0.34208   0.34308   0.34833   0.35024
     Eigenvalues ---    0.35128   0.35168   0.35361   0.35764   0.42038
     Eigenvalues ---    0.56977   0.66918   0.74547
 En-DIIS/RFO-DIIS IScMMF=        0 using points:     5    4    3
 RFO step:  Lambda=-8.24700414D-06.
 DidBck=F Rises=F RFO-DIIS coefs:    3.48392   -1.33680   -1.14712
 Iteration  1 RMS(Cart)=  0.09727618 RMS(Int)=  0.01653914
 Iteration  2 RMS(Cart)=  0.01975612 RMS(Int)=  0.00030437
 Iteration  3 RMS(Cart)=  0.00032461 RMS(Int)=  0.00001302
 Iteration  4 RMS(Cart)=  0.00000008 RMS(Int)=  0.00001302
 Variable       Old X    -DE/DX   Delta X   Delta X   Delta X     New X
                                 (Linear)    (Quad)   (Total)
    R1        2.78703   0.00040  -0.00750  -0.00009  -0.00759   2.77944
    R2        2.11605   0.00016  -0.00087   0.00157   0.00070   2.11676
    R3        2.11017   0.00058  -0.00580   0.00061  -0.00519   2.10497
    R4        2.11349   0.00019  -0.00279   0.00019  -0.00260   2.11089
    R5        2.53307   0.00026  -0.00089  -0.00062  -0.00151   2.53156
    R6        2.08392   0.00000   0.00075   0.00132   0.00206   2.08598
    R7        2.73942  -0.00025   0.00508  -0.00139   0.00369   2.74310
    R8        2.08593   0.00005  -0.00107  -0.00037  -0.00143   2.08450
    R9        2.52200   0.00039  -0.00146  -0.00248  -0.00395   2.51806
   R10        2.08717   0.00001  -0.00039  -0.00029  -0.00068   2.08649
   R11        2.07469  -0.00002   0.00113   0.00086   0.00199   2.07669
   R12        2.07344   0.00012  -0.00106   0.00005  -0.00101   2.07243
    A1        1.92518  -0.00031   0.00199  -0.00265  -0.00066   1.92452
    A2        1.93734  -0.00021   0.00125  -0.00196  -0.00074   1.93659
    A3        1.94279  -0.00019   0.00841   0.00512   0.01350   1.95630
    A4        1.88568   0.00023  -0.00284   0.00000  -0.00284   1.88283
    A5        1.88113   0.00034  -0.00997  -0.00279  -0.01275   1.86837
    A6        1.88974   0.00018   0.00052   0.00220   0.00267   1.89241
    A7        2.15363  -0.00025   0.00929   0.00536   0.01464   2.16828
    A8        2.02189   0.00007  -0.00424  -0.00244  -0.00668   2.01521
    A9        2.10764   0.00018  -0.00505  -0.00293  -0.00798   2.09966
   A10        2.15072  -0.00023   0.00310  -0.00121   0.00188   2.15260
   A11        2.10615  -0.00003   0.00255   0.00257   0.00513   2.11128
   A12        2.02631   0.00026  -0.00565  -0.00136  -0.00701   2.01931
   A13        2.15553  -0.00027   0.00445  -0.00086   0.00359   2.15912
   A14        2.02109   0.00042  -0.00873  -0.00107  -0.00980   2.01128
   A15        2.10657  -0.00015   0.00428   0.00193   0.00621   2.11278
   A16        2.14496  -0.00015   0.00791   0.00426   0.01217   2.15713
   A17        2.13374  -0.00031   0.01232   0.00544   0.01776   2.15150
   A18        2.00448   0.00045  -0.02022  -0.00970  -0.02993   1.97456
    D1       -1.33155  -0.00021  -0.10153  -0.13679  -0.23831  -1.56986
    D2        1.80304  -0.00022  -0.10161  -0.13907  -0.24068   1.56237
    D3        2.86213  -0.00015  -0.10008  -0.13379  -0.23386   2.62828
    D4       -0.28646  -0.00016  -0.10017  -0.13607  -0.23622  -0.52268
    D5        0.75579  -0.00011  -0.10727  -0.13872  -0.24602   0.50977
    D6       -2.39281  -0.00012  -0.10735  -0.14100  -0.24838  -2.64119
    D7        3.13077   0.00001  -0.00563  -0.00444  -0.01007   3.12070
    D8       -0.01203   0.00002  -0.00617  -0.00461  -0.01079  -0.02282
    D9       -0.00349   0.00002  -0.00555  -0.00206  -0.00761  -0.01110
   D10        3.13689   0.00003  -0.00609  -0.00223  -0.00833   3.12857
   D11       -3.12566  -0.00002  -0.01539  -0.01715  -0.03254   3.12498
   D12        0.01555  -0.00002  -0.01569  -0.01750  -0.03318  -0.01764
   D13        0.01709  -0.00003  -0.01488  -0.01699  -0.03187  -0.01478
   D14       -3.12489  -0.00002  -0.01517  -0.01734  -0.03251   3.12579
   D15       -0.00072   0.00001  -0.00162  -0.00030  -0.00192  -0.00265
   D16        3.14071   0.00001  -0.00098  -0.00102  -0.00200   3.13871
   D17        3.14127   0.00000  -0.00131   0.00006  -0.00124   3.14003
   D18       -0.00048   0.00001  -0.00067  -0.00065  -0.00132  -0.00180
         Item               Value     Threshold  Converged?
 Maximum Force            0.000582     0.000450     NO 
 RMS     Force            0.000216     0.000300     YES
 Maximum Displacement     0.403313     0.001800     NO 
 RMS     Displacement     0.114402     0.001200     NO 
 Predicted change in Energy=-1.073294D-04
 GradGradGradGradGradGradGradGradGradGradGradGradGradGradGradGradGradGrad

                          Input orientation:                          
 ---------------------------------------------------------------------
 Center     Atomic      Atomic             Coordinates (Angstroms)
 Number     Number       Type             X           Y           Z
 ---------------------------------------------------------------------
      1          6           0       -0.008601    0.015212    0.009116
      2          6           0        0.023833   -0.000126    1.479494
      3          1           0        1.000857    0.278907   -0.398527
      4          1           0       -0.736633    0.770469   -0.365502
      5          1           0       -0.283253   -0.980850   -0.415370
      6          6           0        0.314836   -1.080881    2.215658
      7          1           0       -0.203550    0.962633    1.969277
      8          6           0        0.365776   -1.067837    3.666293
      9          1           0        0.531769   -2.051279    1.738136
     10          6           0        0.636432   -2.142311    4.406429
     11          1           0        0.162817   -0.089293    4.135704
[...]
     Eigenvalues ---    0.00055   0.00205   0.01871   0.02275   0.02521
     Eigenvalues ---    0.02599   0.02906   0.03826   0.06927   0.07483
     Eigenvalues ---    0.11029   0.15588   0.15991   0.16015   0.16055
     Eigenvalues ---    0.16067   0.16315   0.17003   0.21473   0.22004
     Eigenvalues ---    0.22724   0.33858   0.34830   0.34898   0.35023
     Eigenvalues ---    0.35219   0.35309   0.35426   0.36913   0.39075
     Eigenvalues ---    0.45032   0.57462   0.74427
 En-DIIS/RFO-DIIS IScMMF=        0 using points:    15   14   13   12   11
 RFO step:  Lambda=-1.77595724D-08.
 DidBck=F Rises=F RFO-DIIS coefs:    1.21220   -0.26092    0.02386    0.03498   -0.01012
 Iteration  1 RMS(Cart)=  0.00065392 RMS(Int)=  0.00000024
 Iteration  2 RMS(Cart)=  0.00000026 RMS(Int)=  0.00000001
 Variable       Old X    -DE/DX   Delta X   Delta X   Delta X     New X
                                 (Linear)    (Quad)   (Total)
    R1        2.78662   0.00004   0.00006   0.00007   0.00013   2.78675
    R2        2.11526   0.00004   0.00010   0.00002   0.00012   2.11538
    R3        2.11539   0.00001  -0.00002   0.00001  -0.00001   2.11538
    R4        2.11219  -0.00003  -0.00007  -0.00002  -0.00010   2.11209
    R5        2.53292  -0.00002  -0.00001  -0.00003  -0.00004   2.53288
    R6        2.08455   0.00001   0.00002   0.00001   0.00003   2.08458
    R7        2.73920   0.00001  -0.00001   0.00004   0.00002   2.73923
    R8        2.08615   0.00000   0.00001  -0.00001   0.00000   2.08615
    R9        2.52301   0.00003   0.00002   0.00004   0.00006   2.52306
   R10        2.08697   0.00000   0.00000   0.00000   0.00000   2.08697
   R11        2.07439   0.00000  -0.00002   0.00001  -0.00001   2.07438
   R12        2.07369   0.00000   0.00001  -0.00001   0.00001   2.07369
    A1        1.92054  -0.00002  -0.00018  -0.00004  -0.00022   1.92031
    A2        1.92015   0.00002   0.00004   0.00013   0.00017   1.92032
    A3        1.95501  -0.00001  -0.00003  -0.00001  -0.00004   1.95496
    A4        1.88536   0.00000   0.00002  -0.00002   0.00000   1.88535
    A5        1.89050   0.00001   0.00014  -0.00006   0.00007   1.89057
    A6        1.89059   0.00000   0.00002   0.00001   0.00003   1.89062
    A7        2.16035   0.00002   0.00000   0.00009   0.00009   2.16044
    A8        2.01184  -0.00002  -0.00010  -0.00006  -0.00016   2.01168
    A9        2.11099   0.00001   0.00010  -0.00003   0.00007   2.11106
   A10        2.14879   0.00000  -0.00002   0.00001   0.00000   2.14878
   A11        2.10740   0.00000  -0.00003   0.00000  -0.00003   2.10737
   A12        2.02700   0.00001   0.00005  -0.00002   0.00003   2.02703
   A13        2.15414   0.00000  -0.00003   0.00002  -0.00001   2.15412
   A14        2.02425   0.00001   0.00008  -0.00004   0.00004   2.02428
   A15        2.10480   0.00000  -0.00005   0.00002  -0.00003   2.10478
   A16        2.14342   0.00000  -0.00006   0.00004  -0.00001   2.14341
   A17        2.13083  -0.00001  -0.00012   0.00004  -0.00008   2.13076
   A18        2.00893   0.00001   0.00017  -0.00008   0.00009   2.00902
    D1       -2.10446   0.00000   0.00056   0.00029   0.00085  -2.10360
    D2        1.03695   0.00000   0.00047   0.00064   0.00112   1.03806
    D3        2.10342   0.00000   0.00063   0.00026   0.00089   2.10431
    D4       -1.03836   0.00000   0.00053   0.00062   0.00115  -1.03721
    D5       -0.00044  -0.00001   0.00059   0.00017   0.00076   0.00032
    D6        3.14097   0.00000   0.00050   0.00052   0.00102  -3.14120
    D7       -3.14126   0.00000  -0.00044   0.00022  -0.00022  -3.14147
    D8        0.00048  -0.00001  -0.00029  -0.00016  -0.00045   0.00003
    D9        0.00054  -0.00001  -0.00034  -0.00016  -0.00049   0.00004
   D10       -3.14091  -0.00002  -0.00019  -0.00054  -0.00073   3.14155
   D11        3.14107   0.00000   0.00090  -0.00011   0.00080  -3.14132
   D12       -0.00053   0.00000   0.00090  -0.00006   0.00084   0.00031
   D13       -0.00067   0.00000   0.00076   0.00026   0.00102   0.00035
   D14        3.14092   0.00000   0.00075   0.00031   0.00106  -3.14120
   D15        0.00026  -0.00001  -0.00006  -0.00023  -0.00028  -0.00002
   D16       -3.14157   0.00000   0.00003   0.00006   0.00008  -3.14148
   D17       -3.14132  -0.00001  -0.00005  -0.00028  -0.00033   3.14153
   D18        0.00003   0.00000   0.00003   0.00001   0.00004   0.00007
         Item               Value     Threshold  Converged?
 Maximum Force            0.000043     0.000450     YES
 RMS     Force            0.000013     0.000300     YES
 Maximum Displacement     0.001780     0.001800     YES
 RMS     Displacement     0.000654     0.001200     YES
 Predicted change in Energy=-3.191244D-08
 Optimization completed.
    -- Stationary point found.
                           ----------------------------
                           !   Optimized Parameters   !
                           ! (Angstroms and Degrees)  !
 --------------------------                            --------------------------
 ! Name  Definition              Value          Derivative Info.                !
 --------------------------------------------------------------------------------
 ! R1    R(1,2)                  1.4746         -DE/DX =    0.0                 !
 ! R2    R(1,3)                  1.1193         -DE/DX =    0.0                 !
 ! R3    R(1,4)                  1.1194         -DE/DX =    0.0                 !
 ! R4    R(1,5)                  1.1177         -DE/DX =    0.0                 !
 ! R5    R(2,6)                  1.3404         -DE/DX =    0.0                 !
 ! R6    R(2,7)                  1.1031         -DE/DX =    0.0                 !
 ! R7    R(6,8)                  1.4495         -DE/DX =    0.0                 !
 ! R8    R(6,9)                  1.1039         -DE/DX =    0.0                 !
 ! R9    R(8,10)                 1.3351         -DE/DX =    0.0                 !
 ! R10   R(8,11)                 1.1044         -DE/DX =    0.0                 !
 ! R11   R(10,12)                1.0977         -DE/DX =    0.0                 !
 ! R12   R(10,13)                1.0973         -DE/DX =    0.0                 !
 ! A1    A(2,1,3)              110.0387         -DE/DX =    0.0                 !
 ! A2    A(2,1,4)              110.0164         -DE/DX =    0.0                 !
 ! A3    A(2,1,5)              112.0136         -DE/DX =    0.0                 !
 ! A4    A(3,1,4)              108.0229         -DE/DX =    0.0                 !
 ! A5    A(3,1,5)              108.3178         -DE/DX =    0.0                 !
 ! A6    A(4,1,5)              108.3227         -DE/DX =    0.0                 !
 ! A7    A(1,2,6)              123.7788         -DE/DX =    0.0                 !
 ! A8    A(1,2,7)              115.2701         -DE/DX =    0.0                 !
 ! A9    A(6,2,7)              120.9511         -DE/DX =    0.0                 !
 ! A10   A(2,6,8)              123.1164         -DE/DX =    0.0                 !
 ! A11   A(2,6,9)              120.7451         -DE/DX =    0.0                 !
 ! A12   A(8,6,9)              116.1385         -DE/DX =    0.0                 !
 ! A13   A(6,8,10)             123.4229         -DE/DX =    0.0                 !
 ! A14   A(6,8,11)             115.9808         -DE/DX =    0.0                 !
 ! A15   A(10,8,11)            120.5962         -DE/DX =    0.0                 !
 ! A16   A(8,10,12)            122.809          -DE/DX =    0.0                 !
 ! A17   A(8,10,13)            122.0878         -DE/DX =    0.0                 !
 ! A18   A(12,10,13)           115.1032         -DE/DX =    0.0                 !
 ! D1    D(3,1,2,6)           -120.5765         -DE/DX =    0.0                 !
 ! D2    D(3,1,2,7)             59.4127         -DE/DX =    0.0                 !
 ! D3    D(4,1,2,6)            120.5172         -DE/DX =    0.0                 !
 ! D4    D(4,1,2,7)            -59.4937         -DE/DX =    0.0                 !
 ! D5    D(5,1,2,6)             -0.025          -DE/DX =    0.0                 !
 ! D6    D(5,1,2,7)           -180.0359         -DE/DX =    0.0                 !
 ! D7    D(1,2,6,8)           -179.9808         -DE/DX =    0.0                 !
 ! D8    D(1,2,6,9)              0.0275         -DE/DX =    0.0                 !
 ! D9    D(7,2,6,8)              0.0307         -DE/DX =    0.0                 !
 ! D10   D(7,2,6,9)            180.039          -DE/DX =    0.0                 !
 ! D11   D(2,6,8,10)          -180.0302         -DE/DX =    0.0                 !
 ! D12   D(2,6,8,11)            -0.0304         -DE/DX =    0.0                 !
 ! D13   D(9,6,8,10)            -0.0381         -DE/DX =    0.0                 !
 ! D14   D(9,6,8,11)          -180.0383         -DE/DX =    0.0                 !
 ! D15   D(6,8,10,12)            0.0151         -DE/DX =    0.0                 !
 ! D16   D(6,8,10,13)         -179.9985         -DE/DX =    0.0                 !
 ! D17   D(11,8,10,12)         180.0154         -DE/DX =    0.0                 !
 ! D18   D(11,8,10,13)           0.0017         -DE/DX =    0.0                 !
 --------------------------------------------------------------------------------
 GradGradGradGradGradGradGradGradGradGradGradGradGradGradGradGradGradGrad

                          Input orientation:                          
 ---------------------------------------------------------------------
 Center     Atomic      Atomic             Coordinates (Angstroms)
 Number     Number       Type             X           Y           Z
 ---------------------------------------------------------------------
      1          6           0        0.001854    0.008724    0.008478
      2          6           0        0.108195    0.016011    1.479234
      3          1           0        0.808108    0.644316   -0.437522
      4          1           0       -0.985948    0.430883   -0.306361
      5          1           0        0.093765   -1.022354   -0.413110
      6          6           0        0.292754   -1.086689    2.218532
      7          1           0        0.025210    1.008988    1.952446
      8          6           0        0.394908   -1.062933    3.664257
      9          1           0        0.375983   -2.078683    1.741338
     10          6           0        0.578121   -2.157397    4.406631
     11          1           0        0.311953   -0.069190    4.138856
     12          1           0        0.665633   -3.162196    3.973375
     13          1           0        0.652396   -2.114032    5.500602
 ---------------------------------------------------------------------
                    Distance matrix (angstroms):
                    1          2          3          4          5
     1  C    0.000000
     2  C    1.474613   0.000000
     3  H    1.119347   2.135088   0.000000
     4  H    1.119417   2.134857   1.811462   0.000000
     5  H    1.117724   2.158559   1.813469   1.813580   0.000000
     6  C    2.483725   1.340362   3.211945   3.211415   2.639938
     7  H    2.186341   1.103095   2.541233   2.541428   3.118799
     8  C    3.829838   2.453701   4.462065   4.461396   4.088674
     9  H    2.738621   2.127945   3.514098   3.513666   2.416014
    10  C    4.936387   3.676164   5.600742   5.599803   4.975221
    11  H    4.142735   2.668776   4.658165   4.657744   4.655806
    12  H    5.120132   4.078294   5.828023   5.827013   4.913981
    13  H    5.923911   4.583082   6.549354   6.548403   6.039521
                    6          7          8          9         10
     6  C    0.000000
     7  H    2.129376   0.000000
     8  C    1.449525   2.712900   0.000000
     9  H    1.103944   3.114694   2.174793   0.000000
    10  C    2.452678   4.044097   1.335117   2.674106   0.000000
    11  H    2.173320   2.454603   1.104378   3.128938   2.122064
    12  H    2.743401   4.679003   2.139101   2.497977   1.097720
    13  H    3.457855   4.768230   2.131495   3.769578   1.097347
                   11         12         13
    11  H    0.000000
    12  H    3.117557   0.000000
    13  H    2.480248   1.852362   0.000000
 Stoichiometry    C5H8
 Framework group  C1[X(C5H8)]
 Deg. of freedom    33
 Full point group                 C1      NOp   1
 Largest Abelian subgroup         C1      NOp   1
 Largest concise Abelian subgroup C1      NOp   1
                         Standard orientation:                         
 ---------------------------------------------------------------------
 Center     Atomic      Atomic             Coordinates (Angstroms)
 Number     Number       Type             X           Y           Z
 ---------------------------------------------------------------------
      1          6           0        2.434663   -0.224432   -0.000163
      2          6           0        1.110426    0.424323    0.000042
      3          1           0        3.014609    0.087262    0.905071
      4          1           0        3.013560    0.086570   -0.906391
      5          1           0        2.355000   -1.339313    0.000379
      6          6           0       -0.048948   -0.248300    0.000303
      7          1           0        1.126415    1.527302    0.000156
      8          6           0       -1.343194    0.404423    0.000095
      9          1           0       -0.060979   -1.352179    0.000833
     10          6           0       -2.501600   -0.259379   -0.000234
     11          1           0       -1.328118    1.508698    0.000228
     12          1           0       -2.558954   -1.355601   -0.000128
     13          1           0       -3.469616    0.257453   -0.000410
 ---------------------------------------------------------------------
 Rotational constants (GHZ):     27.8404885      2.1974328      2.0641895

 **********************************************************************

            Population analysis using the SCF density.

 **********************************************************************

 Orbital symmetries:
       Occupied  (A) (A) (A) (A) (A) (A) (A) (A) (A) (A) (A) (A)
                 (A) (A)
       Virtual   (A) (A) (A) (A) (A) (A) (A) (A) (A) (A) (A) (A)
                 (A) (A)
 The electronic state is 1-A.
 Alpha  occ. eigenvalues --   -1.34235  -1.20969  -1.01390  -0.79734  -0.74064
 Alpha  occ. eigenvalues --   -0.59047  -0.56419  -0.51978  -0.50305  -0.48125
 Alpha  occ. eigenvalues --   -0.45025  -0.43107  -0.42943  -0.33197
 Alpha virt. eigenvalues --    0.01577   0.08465   0.13760   0.15253   0.15451
 Alpha virt. eigenvalues --    0.16361   0.16646   0.17440   0.17650   0.18303
 Alpha virt. eigenvalues --    0.20139   0.20471   0.21237   0.22388
          Condensed to atoms (all electrons):
               1          2          3          4          5          6
     1  C    4.188682   0.000000   0.000000   0.000000   0.000000   0.000000
     2  C    0.000000   4.151036   0.000000   0.000000   0.000000   0.000000
     3  H    0.000000   0.000000   0.916509   0.000000   0.000000   0.000000
     4  H    0.000000   0.000000   0.000000   0.916509   0.000000   0.000000
     5  H    0.000000   0.000000   0.000000   0.000000   0.921550   0.000000
     6  C    0.000000   0.000000   0.000000   0.000000   0.000000   4.145859
     7  H    0.000000   0.000000   0.000000   0.000000   0.000000   0.000000
     8  C    0.000000   0.000000   0.000000   0.000000   0.000000   0.000000
     9  H    0.000000   0.000000   0.000000   0.000000   0.000000   0.000000
    10  C    0.000000   0.000000   0.000000   0.000000   0.000000   0.000000
    11  H    0.000000   0.000000   0.000000   0.000000   0.000000   0.000000
    12  H    0.000000   0.000000   0.000000   0.000000   0.000000   0.000000
    13  H    0.000000   0.000000   0.000000   0.000000   0.000000   0.000000
               7          8          9         10         11         12
     1  C    0.000000   0.000000   0.000000   0.000000   0.000000   0.000000
     2  C    0.000000   0.000000   0.000000   0.000000   0.000000   0.000000
     3  H    0.000000   0.000000   0.000000   0.000000   0.000000   0.000000
     4  H    0.000000   0.000000   0.000000   0.000000   0.000000   0.000000
     5  H    0.000000   0.000000   0.000000   0.000000   0.000000   0.000000
     6  C    0.000000   0.000000   0.000000   0.000000   0.000000   0.000000
     7  H    0.880610   0.000000   0.000000   0.000000   0.000000   0.000000
     8  C    0.000000   4.131803   0.000000   0.000000   0.000000   0.000000
     9  H    0.000000   0.000000   0.877576   0.000000   0.000000   0.000000
    10  C    0.000000   0.000000   0.000000   4.213051   0.000000   0.000000
    11  H    0.000000   0.000000   0.000000   0.000000   0.880422   0.000000
    12  H    0.000000   0.000000   0.000000   0.000000   0.000000   0.888667
    13  H    0.000000   0.000000   0.000000   0.000000   0.000000   0.000000
              13
     1  C    0.000000
     2  C    0.000000
     3  H    0.000000
     4  H    0.000000
     5  H    0.000000
     6  C    0.000000
     7  H    0.000000
     8  C    0.000000
     9  H    0.000000
    10  C    0.000000
    11  H    0.000000
    12  H    0.000000
    13  H    0.887726
 Mulliken charges:
               1
     1  C   -0.188682
     2  C   -0.151036
     3  H    0.083491
     4  H    0.083491
     5  H    0.078450
     6  C   -0.145859
     7  H    0.119390
     8  C   -0.131803
     9  H    0.122424
    10  C   -0.213051
    11  H    0.119578
    12  H    0.111333
    13  H    0.112274
 Sum of Mulliken charges =   0.00000
 Mulliken charges with hydrogens summed into heavy atoms:
               1
     1  C    0.056750
     2  C   -0.031646
     6  C   -0.023435
     8  C   -0.012225
    10  C    0.010556
 Charge=              0.0000 electrons
 Dipole moment (field-independent basis, Debye):
    X=              0.3242    Y=              0.0296    Z=              0.0002  Tot=              0.3255
 N-N= 9.948937974943D+01 E-N=-1.627792135118D+02  KE=-1.732598486716D+01
 B after Tr=    -0.040815   -0.010860    0.000795
         Rot=    0.999658   -0.001976    0.005993   -0.025375 Ang=  -3.00 deg.
 Final structure in terms of initial Z-matrix:
 C
 C,1,B1
 H,1,B2,2,A2
 H,1,B3,2,A3,3,D3,0
 H,1,B4,2,A4,3,D4,0
 C,2,B5,1,A5,3,D5,0
 H,2,B6,1,A6,3,D6,0
 C,6,B7,2,A7,1,D7,0
 H,6,B8,2,A8,1,D8,0
 C,8,B9,6,A9,2,D9,0
 H,8,B10,6,A10,2,D10,0
 H,10,B11,8,A11,6,D11,0
 H,10,B12,8,A12,6,D12,0
      Variables:
 B1=1.47461338
 B2=1.11934747
 A2=110.03872855
 B3=1.11941679
 A3=110.01639536
 D3=-118.90633497
 B4=1.1177237
 A4=112.01356445
 D4=120.55140809
 B5=1.34036172
 A5=123.77876072
 D5=-120.57645055
 B6=1.10309545
 A6=115.27014315
 D6=59.41265158
 B7=1.44952474
 A7=123.11635124
 D7=-179.98080284
 B8=1.1039443
 A8=120.7450998
 D8=0.02750941
 B9=1.3351172
 A9=123.42292957
 D9=179.96984027
 B10=1.10437775
 A10=115.98083825
 D10=-0.0303771
 B11=1.0977204
 A11=122.80900476
 D11=0.01512896
 B12=1.09734716
 A12=122.08781997
 D12=-179.9985397
 1\1\GINC-C0700A-S1\FOpt\RAM1\ZDO\C5H8\LE.CHEN\23-Sep-2021\0\\#n AM1 Op
 t\\Title\\0,1\C,0.0171601995,0.013712809,0.0084646037\C,0.1235011299,0
 .0209993131,1.479220578\H,0.8234146579,0.6493041255,-0.4375355961\H,-0
 .9706414353,0.4358719529,-0.3063743019\H,0.1090715357,-1.0173652936,-0
 .4131234924\C,0.3080601643,-1.0817002815,2.2185182939\H,0.0405165946,1
 .0139762225,1.9524329941\C,0.4102142383,-1.0579441313,3.6642437756\H,0
 .391289504,-2.0736942334,1.7413245209\C,0.5934269738,-2.1524087162,4.4
 066172075\H,0.3272593416,-0.0642015141,4.138842874\H,0.680939591,-3.15
 7207892,3.9733618103\H,0.6677025136,-2.1090430649,5.5005885804\\Versio
 n=AS64L-G09RevD.01\State=1-A\HF=0.0314104\RMSD=2.050e-09\RMSF=2.289e-0
 5\Dipole=-0.0156027,0.0655693,-0.1088917\PG=C01 [X(C5H8)]\\@


 Happiness is a conscious choice, not an automatic response.
 -- Mildred Barthel
 Job cpu time:       0 days  0 hours  0 minutes  5.2 seconds.
 File lengths (MBytes):  RWF=      5 Int=      0 D2E=      0 Chk=      2 Scr=      1
 Normal termination of Gaussian 09 at Thu Sep 23 21:46:20 2021.
