 Entering Gaussian System, Link 0=g09
 Initial command:
 /apps/gaussian/g09/amd-sse4a/l1.exe "/blue/chm6586/le.chen/hw2/homo/Gau-42476.inp" -scrdir="/blue/chm6586/le.chen/hw2/homo/"
 Entering Link 1 = /apps/gaussian/g09/amd-sse4a/l1.exe PID=     42477.
  
 Copyright (c) 1988,1990,1992,1993,1995,1998,2003,2009,2013,
            Gaussian, Inc.  All Rights Reserved.
  
 This is part of the Gaussian(R) 09 program.  It is based on
 the Gaussian(R) 03 system (copyright 2003, Gaussian, Inc.),
 the Gaussian(R) 98 system (copyright 1998, Gaussian, Inc.),
 the Gaussian(R) 94 system (copyright 1995, Gaussian, Inc.),
 the Gaussian 92(TM) system (copyright 1992, Gaussian, Inc.),
 the Gaussian 90(TM) system (copyright 1990, Gaussian, Inc.),
 the Gaussian 88(TM) system (copyright 1988, Gaussian, Inc.),
 the Gaussian 86(TM) system (copyright 1986, Carnegie Mellon
 University), and the Gaussian 82(TM) system (copyright 1983,
 Carnegie Mellon University). Gaussian is a federally registered
 trademark of Gaussian, Inc.
  
 This software contains proprietary and confidential information,
 including trade secrets, belonging to Gaussian, Inc.
  
 This software is provided under written license and may be
 used, copied, transmitted, or stored only in accord with that
 written license.
  
 The following legend is applicable only to US Government
 contracts under FAR:
  
                    RESTRICTED RIGHTS LEGEND
  
 Use, reproduction and disclosure by the US Government is
 subject to restrictions as set forth in subparagraphs (a)
 and (c) of the Commercial Computer Software - Restricted
 Rights clause in FAR 52.227-19.
  
 Gaussian, Inc.
 340 Quinnipiac St., Bldg. 40, Wallingford CT 06492
  
  
 ---------------------------------------------------------------
 Warning -- This program may not be used in any manner that
 competes with the business of Gaussian, Inc. or will provide
 assistance to any competitor of Gaussian, Inc.  The licensee
 of this program is prohibited from giving any competitor of
 Gaussian, Inc. access to this program.  By using this program,
 the user acknowledges that Gaussian, Inc. is engaged in the
 business of creating and licensing software in the field of
 computational chemistry and represents and warrants to the
 licensee that it is not a competitor of Gaussian, Inc. and that
 it will not use this program in any manner prohibited above.
 ---------------------------------------------------------------
  

 Cite this work as:
 Gaussian 09, Revision D.01,
 M. J. Frisch, G. W. Trucks, H. B. Schlegel, G. E. Scuseria, 
 M. A. Robb, J. R. Cheeseman, G. Scalmani, V. Barone, B. Mennucci, 
 G. A. Petersson, H. Nakatsuji, M. Caricato, X. Li, H. P. Hratchian, 
 A. F. Izmaylov, J. Bloino, G. Zheng, J. L. Sonnenberg, M. Hada, 
 M. Ehara, K. Toyota, R. Fukuda, J. Hasegawa, M. Ishida, T. Nakajima, 
 Y. Honda, O. Kitao, H. Nakai, T. Vreven, J. A. Montgomery, Jr., 
 J. E. Peralta, F. Ogliaro, M. Bearpark, J. J. Heyd, E. Brothers, 
 K. N. Kudin, V. N. Staroverov, T. Keith, R. Kobayashi, J. Normand, 
 K. Raghavachari, A. Rendell, J. C. Burant, S. S. Iyengar, J. Tomasi, 
 M. Cossi, N. Rega, J. M. Millam, M. Klene, J. E. Knox, J. B. Cross, 
 V. Bakken, C. Adamo, J. Jaramillo, R. Gomperts, R. E. Stratmann, 
 O. Yazyev, A. J. Austin, R. Cammi, C. Pomelli, J. W. Ochterski, 
 R. L. Martin, K. Morokuma, V. G. Zakrzewski, G. A. Voth, 
 P. Salvador, J. J. Dannenberg, S. Dapprich, A. D. Daniels, 
 O. Farkas, J. B. Foresman, J. V. Ortiz, J. Cioslowski, 
 and D. J. Fox, Gaussian, Inc., Wallingford CT, 2013.
 
 ******************************************
 Gaussian 09:  AS64L-G09RevD.01 24-Apr-2013
                23-Sep-2021 
 ******************************************
 ----------
 #n AM1 Opt
 ----------
 1/14=-1,18=20,19=15,26=1,38=1/1,3;
 2/9=110,12=2,17=6,18=5,40=1/2;
 3/5=2,16=1,25=1,41=700000,71=1/1,2,3;
 4/35=1/1;
 5/5=2,35=1,38=5/2;
 6/7=2,8=2,9=2,10=2,28=1/1;
 7//1,2,3,16;
 1/14=-1,18=20,19=15,26=1/3(2);
 2/9=110/2;
 99//99;
 2/9=110/2;
 3/5=2,16=1,25=1,41=700000,71=1,135=20/1,2,3;
 4/5=5,16=3,35=1/1;
 5/5=2,35=1,38=5/2;
 7//1,2,3,16;
 1/14=-1,18=20,19=15,26=1/3(-5);
 2/9=110/2;
 6/7=2,8=2,9=2,10=2,19=2,28=1/1;
 99/9=1/99;
 -----
 Title
 -----
 Symbolic Z-matrix:
 Charge =  0 Multiplicity = 1
 C
 C                    1    B1
 H                    1    B2       2    A2
 H                    1    B3       2    A3       3    D3       0
 H                    1    B4       2    A4       3    D4       0
 C                    2    B5       1    A5       3    D5       0
 H                    2    B6       1    A6       3    D6       0
 C                    6    B7       2    A7       1    D7       0
 H                    6    B8       2    A8       1    D8       0
 C                    8    B9       6    A9       2    D9       0
 H                    8    B10      6    A10      2    D10      0
 C                    10   B11      8    A11      6    D11      0
 H                    10   B12      8    A12      6    D12      0
 C                    12   B13      10   A13      8    D13      0
 H                    12   B14      10   A14      8    D14      0
 H                    14   B15      12   A15      10   D15      0
 H                    14   B16      12   A16      10   D16      0
       Variables:
  B1                    1.49438                  
  B2                    1.09405                  
  A2                  110.23523                  
  B3                    1.0944                   
  A3                  109.96915                  
  D3                  240.70417                  
  B4                    1.09491                  
  A4                  111.72558                  
  D4                  121.28268                  
  B5                    1.34108                  
  A5                  122.84905                  
  D5                  268.55531                  
  B6                    1.08723                  
  A6                  116.56907                  
  D6                   88.37936                  
  B7                    1.44471                  
  A7                  123.39803                  
  D7                  180.1941                   
  B8                    1.08842                  
  A8                  119.34043                  
  D8                    0.93586                  
  B9                    1.34206                  
  A9                  122.19029                  
  D9                  184.63922                  
  B10                   1.08768                  
  A10                 117.47895                  
  D10                   4.60547                  
  B11                   1.44317                  
  A11                 123.32587                  
  D11                 180.28325                  
  B12                   1.08809                  
  A12                 119.78446                  
  D12                   0.55918                  
  B13                   1.33886                  
  A13                 122.63694                  
  D13                 181.59878                  
  B14                   1.08772                  
  A14                 118.15286                  
  D14                   1.70944                  
  B15                   1.08544                  
  A15                 122.11674                  
  D15                   0.27309                  
  B16                   1.08516                  
  A16                 120.59534                  
  D16                 180.12543                  
 

 GradGradGradGradGradGradGradGradGradGradGradGradGradGradGradGradGradGrad
 Berny optimization.
 Initialization pass.
                           ----------------------------
                           !    Initial Parameters    !
                           ! (Angstroms and Degrees)  !
 --------------------------                            --------------------------
 ! Name  Definition              Value          Derivative Info.                !
 --------------------------------------------------------------------------------
 ! R1    R(1,2)                  1.4944         estimate D2E/DX2                !
 ! R2    R(1,3)                  1.094          estimate D2E/DX2                !
 ! R3    R(1,4)                  1.0944         estimate D2E/DX2                !
 ! R4    R(1,5)                  1.0949         estimate D2E/DX2                !
 ! R5    R(2,6)                  1.3411         estimate D2E/DX2                !
 ! R6    R(2,7)                  1.0872         estimate D2E/DX2                !
 ! R7    R(6,8)                  1.4447         estimate D2E/DX2                !
 ! R8    R(6,9)                  1.0884         estimate D2E/DX2                !
 ! R9    R(8,10)                 1.3421         estimate D2E/DX2                !
 ! R10   R(8,11)                 1.0877         estimate D2E/DX2                !
 ! R11   R(10,12)                1.4432         estimate D2E/DX2                !
 ! R12   R(10,13)                1.0881         estimate D2E/DX2                !
 ! R13   R(12,14)                1.3389         estimate D2E/DX2                !
 ! R14   R(12,15)                1.0877         estimate D2E/DX2                !
 ! R15   R(14,16)                1.0854         estimate D2E/DX2                !
 ! R16   R(14,17)                1.0852         estimate D2E/DX2                !
 ! A1    A(2,1,3)              110.2352         estimate D2E/DX2                !
 ! A2    A(2,1,4)              109.9691         estimate D2E/DX2                !
 ! A3    A(2,1,5)              111.7256         estimate D2E/DX2                !
 ! A4    A(3,1,4)              108.2639         estimate D2E/DX2                !
 ! A5    A(3,1,5)              108.9398         estimate D2E/DX2                !
 ! A6    A(4,1,5)              107.6069         estimate D2E/DX2                !
 ! A7    A(1,2,6)              122.8491         estimate D2E/DX2                !
 ! A8    A(1,2,7)              116.5691         estimate D2E/DX2                !
 ! A9    A(6,2,7)              120.5816         estimate D2E/DX2                !
 ! A10   A(2,6,8)              123.398          estimate D2E/DX2                !
 ! A11   A(2,6,9)              119.3404         estimate D2E/DX2                !
 ! A12   A(8,6,9)              117.2576         estimate D2E/DX2                !
 ! A13   A(6,8,10)             122.1903         estimate D2E/DX2                !
 ! A14   A(6,8,11)             117.4789         estimate D2E/DX2                !
 ! A15   A(10,8,11)            120.3308         estimate D2E/DX2                !
 ! A16   A(8,10,12)            123.3259         estimate D2E/DX2                !
 ! A17   A(8,10,13)            119.7845         estimate D2E/DX2                !
 ! A18   A(12,10,13)           116.8891         estimate D2E/DX2                !
 ! A19   A(10,12,14)           122.6369         estimate D2E/DX2                !
 ! A20   A(10,12,15)           118.1529         estimate D2E/DX2                !
 ! A21   A(14,12,15)           119.2101         estimate D2E/DX2                !
 ! A22   A(12,14,16)           122.1167         estimate D2E/DX2                !
 ! A23   A(12,14,17)           120.5953         estimate D2E/DX2                !
 ! A24   A(16,14,17)           117.2878         estimate D2E/DX2                !
 ! D1    D(3,1,2,6)            -91.4447         estimate D2E/DX2                !
 ! D2    D(3,1,2,7)             88.3794         estimate D2E/DX2                !
 ! D3    D(4,1,2,6)            149.2595         estimate D2E/DX2                !
 ! D4    D(4,1,2,7)            -30.9165         estimate D2E/DX2                !
 ! D5    D(5,1,2,6)             29.838          estimate D2E/DX2                !
 ! D6    D(5,1,2,7)           -150.338          estimate D2E/DX2                !
 ! D7    D(1,2,6,8)           -179.8059         estimate D2E/DX2                !
 ! D8    D(1,2,6,9)              0.9359         estimate D2E/DX2                !
 ! D9    D(7,2,6,8)              0.3769         estimate D2E/DX2                !
 ! D10   D(7,2,6,9)           -178.8813         estimate D2E/DX2                !
 ! D11   D(2,6,8,10)          -175.3608         estimate D2E/DX2                !
 ! D12   D(2,6,8,11)             4.6055         estimate D2E/DX2                !
 ! D13   D(9,6,8,10)             3.9118         estimate D2E/DX2                !
 ! D14   D(9,6,8,11)          -176.1219         estimate D2E/DX2                !
 ! D15   D(6,8,10,12)         -179.7167         estimate D2E/DX2                !
 ! D16   D(6,8,10,13)            0.5592         estimate D2E/DX2                !
 ! D17   D(11,8,10,12)           0.3179         estimate D2E/DX2                !
 ! D18   D(11,8,10,13)        -179.4061         estimate D2E/DX2                !
 ! D19   D(8,10,12,14)        -178.4012         estimate D2E/DX2                !
 ! D20   D(8,10,12,15)           1.7094         estimate D2E/DX2                !
 ! D21   D(13,10,12,14)          1.3303         estimate D2E/DX2                !
 ! D22   D(13,10,12,15)       -178.5591         estimate D2E/DX2                !
 ! D23   D(10,12,14,16)          0.2731         estimate D2E/DX2                !
 ! D24   D(10,12,14,17)       -179.8746         estimate D2E/DX2                !
 ! D25   D(15,12,14,16)       -179.8387         estimate D2E/DX2                !
 ! D26   D(15,12,14,17)          0.0136         estimate D2E/DX2                !
 --------------------------------------------------------------------------------
 Trust Radius=3.00D-01 FncErr=1.00D-07 GrdErr=1.00D-07
 Number of steps in this run=     76 maximum allowed number of steps=    102.
 GradGradGradGradGradGradGradGradGradGradGradGradGradGradGradGradGradGrad

                          Input orientation:                          
 ---------------------------------------------------------------------
 Center     Atomic      Atomic             Coordinates (Angstroms)
 Number     Number       Type             X           Y           Z
 ---------------------------------------------------------------------
      1          6           0        0.000000    0.000000    0.000000
      2          6           0        0.000000    0.000000    1.494380
      3          1           0        1.026526    0.000000   -0.378405
      4          1           0       -0.503314    0.897048   -0.373753
      5          1           0       -0.528159   -0.869260   -0.405294
      6          6           0       -0.028405   -1.126287    2.221819
      7          1           0        0.027502    0.972025    1.980672
      8          6           0       -0.032839   -1.140025    3.666457
      9          1           0       -0.037183   -2.089005    1.714124
     10          6           0        0.030374   -2.280653    4.370798
     11          1           0       -0.089383   -0.181440    4.177305
     12          6           0        0.021642   -2.323278    5.813312
     13          1           0        0.096457   -3.234103    3.850696
     14          6           0        0.116687   -3.467201    6.502480
     15          1           0       -0.067871   -1.383704    6.353981
     16          1           0        0.210419   -4.430663    6.011425
     17          1           0        0.104680   -3.460920    7.587556
 ---------------------------------------------------------------------
                    Distance matrix (angstroms):
                    1          2          3          4          5
     1  C    0.000000
     2  C    1.494380   0.000000
     3  H    1.094050   2.135668   0.000000
     4  H    1.094400   2.132590   1.773450   0.000000
     5  H    1.094910   2.154838   1.781398   1.766765   0.000000
     6  C    2.491146   1.341080   3.023667   3.325119   2.686547
     7  H    2.206502   1.087230   2.740096   2.414685   3.064624
     8  C    3.839745   2.453294   4.333914   4.549100   4.110694
     9  H    2.702507   2.100860   3.142307   3.673285   2.494146
    10  C    4.930130   3.670979   5.361775   5.735275   5.011491
    11  H    4.182198   2.690538   4.693896   4.695381   4.654656
    12  C    6.260406   4.904209   6.689153   6.994702   6.409954
    13  H    5.029571   4.002618   5.404604   5.939032   4.908775
    14  C    7.370030   6.092304   7.758599   8.167843   7.408270
    15  H    6.503255   5.053214   6.959695   7.117152   6.794433
    16  H    7.470762   6.330778   7.818358   8.346521   7.375863
    17  H    8.340259   7.008260   8.734088   9.096372   8.426317
                    6          7          8          9         10
     6  C    0.000000
     7  H    2.112863   0.000000
     8  C    1.444710   2.703011   0.000000
     9  H    1.088420   3.073294   2.170757   0.000000
    10  C    2.440109   4.036413   1.342060   2.664435   0.000000
    11  H    2.172643   2.483815   1.087680   3.115893   2.111510
    12  C    3.786043   5.054521   2.451947   4.106299   1.443170
    13  H    2.666781   4.603613   2.106139   2.427766   1.088090
    14  C    4.881085   6.337304   3.671666   4.985124   2.441191
    15  H    4.140361   4.968338   2.698777   4.693258   2.178803
    16  H    5.033593   6.743105   4.048005   4.900149   2.710464
    17  H    5.853149   7.148014   4.558561   6.033198   3.427255
                   11         12         13         14         15
    11  H    0.000000
    12  C    2.697465   0.000000
    13  H    3.075704   2.164963   0.000000
    14  C    4.030525   1.338860   2.662087   0.000000
    15  H    2.486729   1.087720   3.117277   2.096920   0.000000
    16  H    4.637863   2.125078   2.472548   1.085440   3.078758
    17  H    4.735236   2.109281   3.743746   1.085160   2.422046
                   16         17
    16  H    0.000000
    17  H    1.853583   0.000000
 Stoichiometry    C7H10
 Framework group  C1[X(C7H10)]
 Deg. of freedom    45
 Full point group                 C1      NOp   1
 Largest Abelian subgroup         C1      NOp   1
 Largest concise Abelian subgroup C1      NOp   1
                         Standard orientation:                         
 ---------------------------------------------------------------------
 Center     Atomic      Atomic             Coordinates (Angstroms)
 Number     Number       Type             X           Y           Z
 ---------------------------------------------------------------------
      1          6           0        3.655556   -0.281541    0.017512
      2          6           0        2.333956    0.415828    0.032398
      3          1           0        3.976892   -0.505254    1.039100
      4          1           0        4.411177    0.359461   -0.447101
      5          1           0        3.615256   -1.214198   -0.554637
      6          6           0        1.165482   -0.238187   -0.041275
      7          1           0        2.357066    1.500034    0.110061
      8          6           0       -0.118480    0.424038   -0.031954
      9          1           0        1.165399   -1.325021   -0.100015
     10          6           0       -1.274408   -0.257628   -0.015012
     11          1           0       -0.122267    1.511691   -0.038623
     12          6           0       -2.569914    0.378290   -0.011353
     13          1           0       -1.260164   -1.345502    0.001332
     14          6           0       -3.714373   -0.314829    0.037079
     15          1           0       -2.608516    1.464582   -0.051543
     16          1           0       -3.730848   -1.399260    0.080864
     17          1           0       -4.670906    0.197633    0.036188
 ---------------------------------------------------------------------
 Rotational constants (GHZ):     19.8369049      0.8308361      0.8017472
 Standard basis: VSTO-6G (5D, 7F)
 There are    38 symmetry adapted cartesian basis functions of A   symmetry.
 There are    38 symmetry adapted basis functions of A   symmetry.
    38 basis functions,   228 primitive gaussians,    38 cartesian basis functions
    19 alpha electrons       19 beta electrons
       nuclear repulsion energy       156.0217781567 Hartrees.
 Integral buffers will be    131072 words long.
 Regular integral format.
 Two-electron integral symmetry is turned off.
 Do NDO integrals.
 One-electron integrals computed using PRISM.
 NBasis=    38 RedAO= F EigKep=  0.00D+00  NBF=    38
 NBsUse=    38 1.00D-04 EigRej=  0.00D+00 NBFU=    38
 Simple Huckel Guess.
 Overlap will be assumed to be unity.
 Keep J ints in memory in canonical form, NReq=897485.
 Requested convergence on RMS density matrix=1.00D-08 within 128 cycles.
 Requested convergence on MAX density matrix=1.00D-06.
 Requested convergence on             energy=1.00D-06.
 No special actions if energy rises.
 SCF Done:  E(RAM1) =  0.552977994578E-01 A.U. after   12 cycles
            NFock= 11  Conv=0.44D-08     -V/T= 1.0023

 **********************************************************************

            Population analysis using the SCF density.

 **********************************************************************

 Orbital symmetries:
       Occupied  (A) (A) (A) (A) (A) (A) (A) (A) (A) (A) (A) (A)
                 (A) (A) (A) (A) (A) (A) (A)
       Virtual   (A) (A) (A) (A) (A) (A) (A) (A) (A) (A) (A) (A)
                 (A) (A) (A) (A) (A) (A) (A)
 The electronic state is 1-A.
 Alpha  occ. eigenvalues --   -1.36883  -1.28924  -1.16642  -1.01512  -0.84137
 Alpha  occ. eigenvalues --   -0.75329  -0.73920  -0.60102  -0.58729  -0.52544
 Alpha  occ. eigenvalues --   -0.52426  -0.51993  -0.47375  -0.46877  -0.45633
 Alpha  occ. eigenvalues --   -0.44708  -0.43395  -0.39116  -0.31541
 Alpha virt. eigenvalues --   -0.00359   0.05492   0.09497   0.13537   0.15041
 Alpha virt. eigenvalues --    0.15112   0.15910   0.16358   0.16719   0.16980
 Alpha virt. eigenvalues --    0.17728   0.18121   0.18326   0.19163   0.20406
 Alpha virt. eigenvalues --    0.20720   0.21142   0.21539   0.22422
          Condensed to atoms (all electrons):
               1          2          3          4          5          6
     1  C    4.185025   0.000000   0.000000   0.000000   0.000000   0.000000
     2  C    0.000000   4.149384   0.000000   0.000000   0.000000   0.000000
     3  H    0.000000   0.000000   0.914468   0.000000   0.000000   0.000000
     4  H    0.000000   0.000000   0.000000   0.922056   0.000000   0.000000
     5  H    0.000000   0.000000   0.000000   0.000000   0.920152   0.000000
     6  C    0.000000   0.000000   0.000000   0.000000   0.000000   4.146260
     7  H    0.000000   0.000000   0.000000   0.000000   0.000000   0.000000
     8  C    0.000000   0.000000   0.000000   0.000000   0.000000   0.000000
     9  H    0.000000   0.000000   0.000000   0.000000   0.000000   0.000000
    10  C    0.000000   0.000000   0.000000   0.000000   0.000000   0.000000
    11  H    0.000000   0.000000   0.000000   0.000000   0.000000   0.000000
    12  C    0.000000   0.000000   0.000000   0.000000   0.000000   0.000000
    13  H    0.000000   0.000000   0.000000   0.000000   0.000000   0.000000
    14  C    0.000000   0.000000   0.000000   0.000000   0.000000   0.000000
    15  H    0.000000   0.000000   0.000000   0.000000   0.000000   0.000000
    16  H    0.000000   0.000000   0.000000   0.000000   0.000000   0.000000
    17  H    0.000000   0.000000   0.000000   0.000000   0.000000   0.000000
               7          8          9         10         11         12
     1  C    0.000000   0.000000   0.000000   0.000000   0.000000   0.000000
     2  C    0.000000   0.000000   0.000000   0.000000   0.000000   0.000000
     3  H    0.000000   0.000000   0.000000   0.000000   0.000000   0.000000
     4  H    0.000000   0.000000   0.000000   0.000000   0.000000   0.000000
     5  H    0.000000   0.000000   0.000000   0.000000   0.000000   0.000000
     6  C    0.000000   0.000000   0.000000   0.000000   0.000000   0.000000
     7  H    0.879597   0.000000   0.000000   0.000000   0.000000   0.000000
     8  C    0.000000   4.119868   0.000000   0.000000   0.000000   0.000000
     9  H    0.000000   0.000000   0.878451   0.000000   0.000000   0.000000
    10  C    0.000000   0.000000   0.000000   4.131535   0.000000   0.000000
    11  H    0.000000   0.000000   0.000000   0.000000   0.877739   0.000000
    12  C    0.000000   0.000000   0.000000   0.000000   0.000000   4.135369
    13  H    0.000000   0.000000   0.000000   0.000000   0.000000   0.000000
    14  C    0.000000   0.000000   0.000000   0.000000   0.000000   0.000000
    15  H    0.000000   0.000000   0.000000   0.000000   0.000000   0.000000
    16  H    0.000000   0.000000   0.000000   0.000000   0.000000   0.000000
    17  H    0.000000   0.000000   0.000000   0.000000   0.000000   0.000000
              13         14         15         16         17
     1  C    0.000000   0.000000   0.000000   0.000000   0.000000
     2  C    0.000000   0.000000   0.000000   0.000000   0.000000
     3  H    0.000000   0.000000   0.000000   0.000000   0.000000
     4  H    0.000000   0.000000   0.000000   0.000000   0.000000
     5  H    0.000000   0.000000   0.000000   0.000000   0.000000
     6  C    0.000000   0.000000   0.000000   0.000000   0.000000
     7  H    0.000000   0.000000   0.000000   0.000000   0.000000
     8  C    0.000000   0.000000   0.000000   0.000000   0.000000
     9  H    0.000000   0.000000   0.000000   0.000000   0.000000
    10  C    0.000000   0.000000   0.000000   0.000000   0.000000
    11  H    0.000000   0.000000   0.000000   0.000000   0.000000
    12  C    0.000000   0.000000   0.000000   0.000000   0.000000
    13  H    0.877941   0.000000   0.000000   0.000000   0.000000
    14  C    0.000000   4.208217   0.000000   0.000000   0.000000
    15  H    0.000000   0.000000   0.879068   0.000000   0.000000
    16  H    0.000000   0.000000   0.000000   0.887297   0.000000
    17  H    0.000000   0.000000   0.000000   0.000000   0.887570
 Mulliken charges:
               1
     1  C   -0.185025
     2  C   -0.149384
     3  H    0.085532
     4  H    0.077944
     5  H    0.079848
     6  C   -0.146260
     7  H    0.120403
     8  C   -0.119868
     9  H    0.121549
    10  C   -0.131535
    11  H    0.122261
    12  C   -0.135369
    13  H    0.122059
    14  C   -0.208217
    15  H    0.120932
    16  H    0.112703
    17  H    0.112430
 Sum of Mulliken charges =   0.00000
 Mulliken charges with hydrogens summed into heavy atoms:
               1
     1  C    0.058298
     2  C   -0.028981
     6  C   -0.024711
     8  C    0.002393
    10  C   -0.009477
    12  C   -0.014438
    14  C    0.016916
 Charge=              0.0000 electrons
 Dipole moment (field-independent basis, Debye):
    X=              0.3485    Y=             -0.0126    Z=              0.0584  Tot=              0.3536
 N-N= 1.560217781567D+02 E-N=-2.621255600031D+02  KE=-2.397168913561D+01
 Calling FoFJK, ICntrl=      2127 FMM=F ISym2X=0 I1Cent= 0 IOpClX= 0 NMat=1 NMatS=1 NMatT=0.
 ***** Axes restored to original set *****
 -------------------------------------------------------------------
 Center     Atomic                   Forces (Hartrees/Bohr)
 Number     Number              X              Y              Z
 -------------------------------------------------------------------
      1        6          -0.002574754    0.001529764    0.027783872
      2        6          -0.000498296   -0.007774826   -0.014340347
      3        1           0.016783267   -0.000537406   -0.004909847
      4        1          -0.007635107    0.014893481   -0.005226186
      5        1          -0.006659808   -0.014327324   -0.004548885
      6        6           0.001099830    0.009339194   -0.000622848
      7        1           0.000288715    0.009749494    0.002340787
      8        6           0.000250546   -0.004561486   -0.004833346
      9        1          -0.000808067   -0.010999171   -0.003173780
     10        6          -0.000184671    0.005659639    0.003046420
     11        1          -0.000682472    0.010609544    0.003686208
     12        6           0.000972314   -0.012445256    0.000905332
     13        1           0.000475204   -0.011020610   -0.003961929
     14        6          -0.000654989    0.009791676   -0.005744135
     15        1          -0.001012755    0.011489891    0.002514861
     16        1           0.000667975   -0.008460335   -0.001775137
     17        1           0.000173070   -0.002936270    0.008858959
 -------------------------------------------------------------------
 Cartesian Forces:  Max     0.027783872 RMS     0.007908058

 GradGradGradGradGradGradGradGradGradGradGradGradGradGradGradGradGradGrad
 Berny optimization.
 FormGI is forming the generalized inverse of G from B-inverse, IUseBI=4.
 Internal  Forces:  Max     0.017503952 RMS     0.005553463
 Search for a local minimum.
 Step number   1 out of a maximum of   76
 All quantities printed in internal units (Hartrees-Bohrs-Radians)
 Mixed Optimization -- RFO/linear search
 Second derivative matrix not updated -- first step.
 ITU=  0
     Eigenvalues ---    0.00840   0.01497   0.01518   0.01689   0.02195
     Eigenvalues ---    0.02196   0.02205   0.02215   0.02855   0.02868
     Eigenvalues ---    0.02898   0.02898   0.07238   0.07456   0.15999
     Eigenvalues ---    0.16000   0.16000   0.16000   0.16000   0.16000
     Eigenvalues ---    0.16000   0.16000   0.16000   0.16000   0.22000
     Eigenvalues ---    0.22000   0.22000   0.22000   0.22000   0.32974
     Eigenvalues ---    0.34251   0.34309   0.34349   0.34996   0.35034
     Eigenvalues ---    0.35077   0.35082   0.35135   0.35345   0.35378
     Eigenvalues ---    0.38946   0.39154   0.56746   0.56964   0.57461
 RFO step:  Lambda=-6.10782082D-03 EMin= 8.40289264D-03
 Linear search not attempted -- first point.
 Iteration  1 RMS(Cart)=  0.03094162 RMS(Int)=  0.00035248
 Iteration  2 RMS(Cart)=  0.00051056 RMS(Int)=  0.00003999
 Iteration  3 RMS(Cart)=  0.00000019 RMS(Int)=  0.00003998
 Variable       Old X    -DE/DX   Delta X   Delta X   Delta X     New X
                                 (Linear)    (Quad)   (Total)
    R1        2.82397  -0.01310   0.00000  -0.03900  -0.03900   2.78497
    R2        2.06745   0.01745   0.00000   0.04990   0.04990   2.11736
    R3        2.06812   0.01750   0.00000   0.05013   0.05013   2.11824
    R4        2.06908   0.01627   0.00000   0.04667   0.04667   2.11575
    R5        2.53427   0.00236   0.00000   0.00411   0.00411   2.53838
    R6        2.05457   0.00977   0.00000   0.02733   0.02733   2.08190
    R7        2.73011   0.00271   0.00000   0.00686   0.00686   2.73697
    R8        2.05682   0.01122   0.00000   0.03150   0.03150   2.08831
    R9        2.53613   0.00877   0.00000   0.01529   0.01529   2.55142
   R10        2.05542   0.01112   0.00000   0.03115   0.03115   2.08656
   R11        2.72720   0.00483   0.00000   0.01215   0.01215   2.73935
   R12        2.05619   0.01158   0.00000   0.03249   0.03249   2.08868
   R13        2.53008   0.00207   0.00000   0.00357   0.00357   2.53365
   R14        2.05549   0.01126   0.00000   0.03155   0.03155   2.08704
   R15        2.05118   0.00837   0.00000   0.02328   0.02328   2.07446
   R16        2.05066   0.00884   0.00000   0.02456   0.02456   2.07522
    A1        1.92397  -0.00161   0.00000  -0.01261  -0.01270   1.91127
    A2        1.91932  -0.00006   0.00000   0.00296   0.00297   1.92230
    A3        1.94998  -0.00187   0.00000  -0.01173  -0.01182   1.93816
    A4        1.88956   0.00100   0.00000   0.00684   0.00685   1.89641
    A5        1.90136   0.00068   0.00000  -0.00211  -0.00230   1.89906
    A6        1.87810   0.00205   0.00000   0.01788   0.01789   1.89598
    A7        2.14412  -0.00008   0.00000  -0.00037  -0.00037   2.14375
    A8        2.03451  -0.00229   0.00000  -0.01386  -0.01386   2.02065
    A9        2.10455   0.00237   0.00000   0.01422   0.01421   2.11876
   A10        2.15370  -0.00156   0.00000  -0.00687  -0.00689   2.14681
   A11        2.08288   0.00318   0.00000   0.01797   0.01795   2.10083
   A12        2.04653  -0.00162   0.00000  -0.01097  -0.01099   2.03554
   A13        2.13262   0.00212   0.00000   0.00939   0.00939   2.14201
   A14        2.05039  -0.00285   0.00000  -0.01545  -0.01545   2.03494
   A15        2.10017   0.00073   0.00000   0.00606   0.00606   2.10623
   A16        2.15244  -0.00121   0.00000  -0.00535  -0.00535   2.14709
   A17        2.09063   0.00245   0.00000   0.01379   0.01379   2.10442
   A18        2.04010  -0.00124   0.00000  -0.00842  -0.00843   2.03167
   A19        2.14042   0.00195   0.00000   0.00864   0.00864   2.14906
   A20        2.06216  -0.00463   0.00000  -0.02629  -0.02629   2.03586
   A21        2.08061   0.00267   0.00000   0.01766   0.01766   2.09826
   A22        2.13134   0.00104   0.00000   0.00624   0.00624   2.13758
   A23        2.10479   0.00256   0.00000   0.01540   0.01540   2.12018
   A24        2.04706  -0.00359   0.00000  -0.02163  -0.02164   2.02542
    D1       -1.59601   0.00044   0.00000  -0.00286  -0.00295  -1.59896
    D2        1.54251   0.00033   0.00000  -0.00780  -0.00786   1.53465
    D3        2.60507   0.00025   0.00000  -0.00531  -0.00533   2.59974
    D4       -0.53959   0.00014   0.00000  -0.01025  -0.01023  -0.54983
    D5        0.52077  -0.00107   0.00000  -0.02214  -0.02208   0.49869
    D6       -2.62389  -0.00118   0.00000  -0.02708  -0.02699  -2.65088
    D7       -3.13820  -0.00027   0.00000  -0.00716  -0.00713   3.13785
    D8        0.01633  -0.00063   0.00000  -0.02048  -0.02056  -0.00422
    D9        0.00658  -0.00015   0.00000  -0.00198  -0.00191   0.00467
   D10       -3.12207  -0.00051   0.00000  -0.01531  -0.01533  -3.13740
   D11       -3.06062  -0.00036   0.00000  -0.01441  -0.01436  -3.07498
   D12        0.08038  -0.00033   0.00000  -0.01317  -0.01312   0.06726
   D13        0.06827   0.00002   0.00000  -0.00115  -0.00120   0.06708
   D14       -3.07391   0.00006   0.00000   0.00010   0.00004  -3.07387
   D15       -3.13665  -0.00009   0.00000  -0.00207  -0.00205  -3.13870
   D16        0.00976  -0.00021   0.00000  -0.00636  -0.00637   0.00339
   D17        0.00555  -0.00013   0.00000  -0.00334  -0.00333   0.00222
   D18       -3.13123  -0.00024   0.00000  -0.00763  -0.00765  -3.13888
   D19       -3.11369  -0.00009   0.00000  -0.00365  -0.00365  -3.11734
   D20        0.02984  -0.00014   0.00000  -0.00525  -0.00523   0.02461
   D21        0.02322   0.00004   0.00000   0.00058   0.00056   0.02378
   D22       -3.11644  -0.00001   0.00000  -0.00102  -0.00102  -3.11747
   D23        0.00477  -0.00013   0.00000  -0.00392  -0.00393   0.00084
   D24       -3.13940  -0.00002   0.00000  -0.00077  -0.00078  -3.14019
   D25       -3.13878  -0.00009   0.00000  -0.00235  -0.00234  -3.14112
   D26        0.00024   0.00002   0.00000   0.00080   0.00081   0.00104
         Item               Value     Threshold  Converged?
 Maximum Force            0.017504     0.000450     NO 
 RMS     Force            0.005553     0.000300     NO 
 Maximum Displacement     0.084900     0.001800     NO 
 RMS     Displacement     0.031141     0.001200     NO 
 Predicted change in Energy=-3.119973D-03
 GradGradGradGradGradGradGradGradGradGradGradGradGradGradGradGradGradGrad

                          Input orientation:                          
 ---------------------------------------------------------------------
 Center     Atomic      Atomic             Coordinates (Angstroms)
 Number     Number       Type             X           Y           Z
 ---------------------------------------------------------------------
      1          6           0       -0.003182    0.018517    0.011500
      2          6           0       -0.007861    0.001964    1.485140
      3          1           0        1.054031    0.037907   -0.359107
      4          1           0       -0.532248    0.931830   -0.365889
      5          1           0       -0.514226   -0.887578   -0.402444
      6          6           0       -0.025692   -1.134779    2.200561
      7          1           0        0.012171    0.988373    1.975370
      8          6           0       -0.025803   -1.155552    3.648754
      9          1           0       -0.041700   -2.115323    1.691150
     10          6           0        0.031852   -2.300244    4.362382
     11          1           0       -0.076651   -0.176705    4.157129
     12          6           0        0.028602   -2.328562    5.811703
     13          1           0        0.085287   -3.279030    3.851727
     14          6           0        0.112951   -3.462131    6.522699
     15          1           0       -0.048456   -1.354231    6.325972
     16          1           0        0.191312   -4.449853    6.050112
     17          1           0        0.106749   -3.452068    7.620793
 ---------------------------------------------------------------------
                    Distance matrix (angstroms):
                    1          2          3          4          5
     1  C    0.000000
     2  C    1.473741   0.000000
     3  H    1.120457   2.128415   0.000000
     4  H    1.120926   2.136806   1.820831   0.000000
     5  H    1.119608   2.147245   1.821491   1.819865   0.000000
     6  C    2.474386   1.343253   3.015442   3.333787   2.659964
     7  H    2.190353   1.101695   2.727387   2.404388   3.074132
     8  C    3.822115   2.453852   4.318950   4.553131   4.089324
     9  H    2.715876   2.127555   3.168687   3.709068   2.472605
    10  C    4.930320   3.685141   5.366960   5.755090   4.999739
    11  H    4.150873   2.678839   4.660567   4.679114   4.635355
    12  C    6.257167   4.914450   6.688091   7.007663   6.402087
    13  H    5.062508   4.046520   5.447169   5.991742   4.916953
    14  C    7.384045   6.114863   7.777863   8.196086   7.414802
    15  H    6.462124   5.027381   6.916921   7.088098   6.760642
    16  H    7.514586   6.379445   7.871617   8.405422   7.404260
    17  H    8.364113   7.041996   8.761054   9.133124   8.445978
                    6          7          8          9         10
     6  C    0.000000
     7  H    2.135397   0.000000
     8  C    1.448342   2.719940   0.000000
     9  H    1.105089   3.117148   2.180281   0.000000
    10  C    2.456642   4.063646   1.350152   2.678635   0.000000
    11  H    2.179143   2.474948   1.104162   3.136959   2.136194
    12  C    3.803736   5.071467   2.461150   4.126665   1.449601
    13  H    2.708593   4.662273   2.136047   2.457322   1.105281
    14  C    4.910873   6.363596   3.687699   5.018135   2.454288
    15  H    4.131306   4.941579   2.684676   4.696901   2.181072
    16  H    5.084865   6.797788   4.082411   4.950240   2.737641
    17  H    5.896294   7.183123   4.590060   6.080262   3.456812
                   11         12         13         14         15
    11  H    0.000000
    12  C    2.716465   0.000000
    13  H    3.121525   2.179016   0.000000
    14  C    4.052888   1.340750   2.677384   0.000000
    15  H    2.468044   1.104414   3.137615   2.123204   0.000000
    16  H    4.681345   2.140839   2.492984   1.097759   3.117124
    17  H    4.770598   2.131005   3.773098   1.098157   2.470135
                   16         17
    16  H    0.000000
    17  H    1.862731   0.000000
 Stoichiometry    C7H10
 Framework group  C1[X(C7H10)]
 Deg. of freedom    45
 Full point group                 C1      NOp   1
 Largest Abelian subgroup         C1      NOp   1
 Largest concise Abelian subgroup C1      NOp   1
                         Standard orientation:                         
 ---------------------------------------------------------------------
 Center     Atomic      Atomic             Coordinates (Angstroms)
 Number     Number       Type             X           Y           Z
 ---------------------------------------------------------------------
      1          6           0        3.652326   -0.263828    0.018570
      2          6           0        2.342778    0.412175    0.022737
      3          1           0        3.974501   -0.461902    1.073271
      4          1           0        4.420650    0.386224   -0.474973
      5          1           0        3.600549   -1.237382   -0.531914
      6          6           0        1.178582   -0.255203   -0.037136
      7          1           0        2.371425    1.511654    0.086424
      8          6           0       -0.110523    0.404973   -0.028743
      9          1           0        1.169572   -1.358649   -0.096686
     10          6           0       -1.277881   -0.273226   -0.013533
     11          1           0       -0.100489    1.509065   -0.036068
     12          6           0       -2.571474    0.380943   -0.008579
     13          1           0       -1.285907   -1.378434   -0.003636
     14          6           0       -3.731658   -0.289722    0.033742
     15          1           0       -2.568407    1.484839   -0.042238
     16          1           0       -3.777838   -1.385961    0.068424
     17          1           0       -4.696950    0.233880    0.035053
 ---------------------------------------------------------------------
 Rotational constants (GHZ):     19.8110047      0.8269672      0.7982261
 Standard basis: VSTO-6G (5D, 7F)
 There are    38 symmetry adapted cartesian basis functions of A   symmetry.
 There are    38 symmetry adapted basis functions of A   symmetry.
    38 basis functions,   228 primitive gaussians,    38 cartesian basis functions
    19 alpha electrons       19 beta electrons
       nuclear repulsion energy       155.6176544639 Hartrees.
 Integral buffers will be    131072 words long.
 Regular integral format.
 Two-electron integral symmetry is turned off.
 Do NDO integrals.
 One-electron integrals computed using PRISM.
 NBasis=    38 RedAO= F EigKep=  0.00D+00  NBF=    38
 NBsUse=    38 1.00D-04 EigRej=  0.00D+00 NBFU=    38
 Initial guess from the checkpoint file:  "/blue/chm6586/le.chen/hw2/homo/Gau-42477.chk"
 B after Tr=     0.000000    0.000000    0.000000
         Rot=    0.999994    0.003261    0.000033    0.000770 Ang=   0.38 deg.
 Overlap will be assumed to be unity.
 Keep J ints in memory in canonical form, NReq=897485.
 Requested convergence on RMS density matrix=1.00D-08 within 128 cycles.
 Requested convergence on MAX density matrix=1.00D-06.
 Requested convergence on             energy=1.00D-06.
 No special actions if energy rises.
 SCF Done:  E(RAM1) =  0.525565794720E-01 A.U. after   11 cycles
            NFock= 10  Conv=0.25D-08     -V/T= 1.0022
 Calling FoFJK, ICntrl=      2127 FMM=F ISym2X=0 I1Cent= 0 IOpClX= 0 NMat=1 NMatS=1 NMatT=0.
 ***** Axes restored to original set *****
 -------------------------------------------------------------------
 Center     Atomic                   Forces (Hartrees/Bohr)
 Number     Number              X              Y              Z
 -------------------------------------------------------------------
      1        6          -0.001390406    0.001335379   -0.000368674
      2        6          -0.000218467   -0.003040001    0.002257751
      3        1          -0.001085730    0.000172514   -0.001041439
      4        1           0.001238624   -0.001871414   -0.000568874
      5        1           0.001275755    0.001140082   -0.000981624
      6        6          -0.000060870    0.002095473    0.001855013
      7        1           0.000210887    0.000004645    0.000659757
      8        6           0.000355825   -0.006182122    0.001764553
      9        1          -0.000062658    0.000569795    0.000947503
     10        6          -0.000374842    0.005419271   -0.001751469
     11        1           0.000121157   -0.000497130   -0.000331360
     12        6           0.000474796   -0.005643180    0.001255219
     13        1          -0.000081567    0.001089404    0.000700594
     14        6          -0.000563158    0.006410464   -0.003529912
     15        1           0.000042582    0.000024164   -0.001045512
     16        1          -0.000013794    0.000066311    0.000994858
     17        1           0.000131865   -0.001093656   -0.000816383
 -------------------------------------------------------------------
 Cartesian Forces:  Max     0.006410464 RMS     0.002014187

 GradGradGradGradGradGradGradGradGradGradGradGradGradGradGradGradGradGrad
 Berny optimization.
 Using GEDIIS/GDIIS optimizer.
 FormGI is forming the generalized inverse of G from B-inverse, IUseBI=4.
 Internal  Forces:  Max     0.007550639 RMS     0.001573519
 Search for a local minimum.
 Step number   2 out of a maximum of   76
 All quantities printed in internal units (Hartrees-Bohrs-Radians)
 Mixed Optimization -- RFO/linear search
 Update second derivatives using D2CorX and points    1    2
 DE= -2.74D-03 DEPred=-3.12D-03 R= 8.79D-01
 TightC=F SS=  1.41D+00  RLast= 1.48D-01 DXNew= 5.0454D-01 4.4292D-01
 Trust test= 8.79D-01 RLast= 1.48D-01 DXMaxT set to 4.43D-01
 ITU=  1  0
 Use linear search instead of GDIIS.
     Eigenvalues ---    0.00838   0.01496   0.01518   0.01704   0.02203
     Eigenvalues ---    0.02208   0.02213   0.02231   0.02854   0.02863
     Eigenvalues ---    0.02897   0.02898   0.07316   0.07512   0.15184
     Eigenvalues ---    0.16000   0.16000   0.16000   0.16000   0.16000
     Eigenvalues ---    0.16000   0.16000   0.16000   0.16402   0.21746
     Eigenvalues ---    0.22000   0.22000   0.22000   0.22081   0.32931
     Eigenvalues ---    0.34046   0.34278   0.34614   0.34805   0.35010
     Eigenvalues ---    0.35079   0.35083   0.35279   0.35348   0.35633
     Eigenvalues ---    0.39027   0.40840   0.56946   0.57155   0.63354
 RFO step:  Lambda=-3.48283195D-04 EMin= 8.37706973D-03
 Quartic linear search produced a step of -0.08518.
 Iteration  1 RMS(Cart)=  0.01697853 RMS(Int)=  0.00018549
 Iteration  2 RMS(Cart)=  0.00020259 RMS(Int)=  0.00001165
 Iteration  3 RMS(Cart)=  0.00000003 RMS(Int)=  0.00001165
 Variable       Old X    -DE/DX   Delta X   Delta X   Delta X     New X
                                 (Linear)    (Quad)   (Total)
    R1        2.78497   0.00297   0.00332   0.00281   0.00613   2.79110
    R2        2.11736  -0.00068  -0.00425   0.00513   0.00088   2.11824
    R3        2.11824  -0.00192  -0.00427   0.00186  -0.00241   2.11583
    R4        2.11575  -0.00114  -0.00398   0.00344  -0.00054   2.11521
    R5        2.53838  -0.00189  -0.00035  -0.00246  -0.00281   2.53557
    R6        2.08190   0.00030  -0.00233   0.00458   0.00225   2.08415
    R7        2.73697  -0.00275  -0.00058  -0.00551  -0.00609   2.73088
    R8        2.08831  -0.00094  -0.00268   0.00192  -0.00077   2.08755
    R9        2.55142  -0.00755  -0.00130  -0.01003  -0.01133   2.54008
   R10        2.08656  -0.00060  -0.00265   0.00277   0.00011   2.08668
   R11        2.73935  -0.00314  -0.00104  -0.00563  -0.00667   2.73268
   R12        2.08868  -0.00129  -0.00277   0.00114  -0.00162   2.08705
   R13        2.53365  -0.00636  -0.00030  -0.00961  -0.00992   2.52373
   R14        2.08704  -0.00047  -0.00269   0.00316   0.00048   2.08751
   R15        2.07446  -0.00049  -0.00198   0.00197  -0.00001   2.07445
   R16        2.07522  -0.00083  -0.00209   0.00128  -0.00082   2.07440
    A1        1.91127   0.00123   0.00108   0.00441   0.00548   1.91675
    A2        1.92230   0.00133  -0.00025   0.00832   0.00803   1.93032
    A3        1.93816   0.00170   0.00101   0.00863   0.00960   1.94776
    A4        1.89641  -0.00149  -0.00058  -0.00861  -0.00921   1.88719
    A5        1.89906  -0.00164   0.00020  -0.01034  -0.01015   1.88891
    A6        1.89598  -0.00126  -0.00152  -0.00306  -0.00465   1.89134
    A7        2.14375   0.00202   0.00003   0.00833   0.00836   2.15211
    A8        2.02065  -0.00040   0.00118  -0.00264  -0.00146   2.01919
    A9        2.11876  -0.00162  -0.00121  -0.00572  -0.00693   2.11183
   A10        2.14681   0.00007   0.00059  -0.00065  -0.00007   2.14675
   A11        2.10083   0.00057  -0.00153   0.00577   0.00424   2.10507
   A12        2.03554  -0.00064   0.00094  -0.00511  -0.00417   2.03137
   A13        2.14201   0.00028  -0.00080   0.00248   0.00168   2.14370
   A14        2.03494  -0.00021   0.00132  -0.00310  -0.00178   2.03316
   A15        2.10623  -0.00008  -0.00052   0.00061   0.00010   2.10633
   A16        2.14709  -0.00056   0.00046  -0.00308  -0.00263   2.14446
   A17        2.10442   0.00040  -0.00117   0.00377   0.00259   2.10702
   A18        2.03167   0.00016   0.00072  -0.00068   0.00003   2.03171
   A19        2.14906   0.00038  -0.00074   0.00277   0.00204   2.15109
   A20        2.03586  -0.00117   0.00224  -0.00998  -0.00774   2.02812
   A21        2.09826   0.00079  -0.00150   0.00721   0.00570   2.10397
   A22        2.13758   0.00045  -0.00053   0.00340   0.00287   2.14045
   A23        2.12018   0.00091  -0.00131   0.00732   0.00600   2.12619
   A24        2.02542  -0.00136   0.00184  -0.01072  -0.00888   2.01654
    D1       -1.59896  -0.00019   0.00025  -0.01940  -0.01913  -1.61810
    D2        1.53465  -0.00027   0.00067  -0.02398  -0.02331   1.51134
    D3        2.59974   0.00006   0.00045  -0.01665  -0.01617   2.58357
    D4       -0.54983  -0.00002   0.00087  -0.02123  -0.02035  -0.57018
    D5        0.49869  -0.00035   0.00188  -0.02393  -0.02207   0.47662
    D6       -2.65088  -0.00043   0.00230  -0.02851  -0.02624  -2.67712
    D7        3.13785  -0.00023   0.00061  -0.00913  -0.00852   3.12933
    D8       -0.00422  -0.00023   0.00175  -0.01086  -0.00910  -0.01332
    D9        0.00467  -0.00016   0.00016  -0.00431  -0.00416   0.00051
   D10       -3.13740  -0.00016   0.00131  -0.00604  -0.00474   3.14104
   D11       -3.07498  -0.00012   0.00122  -0.00940  -0.00818  -3.08316
   D12        0.06726  -0.00015   0.00112  -0.01021  -0.00910   0.05817
   D13        0.06708  -0.00012   0.00010  -0.00773  -0.00762   0.05945
   D14       -3.07387  -0.00015   0.00000  -0.00854  -0.00854  -3.08241
   D15       -3.13870  -0.00009   0.00017  -0.00311  -0.00294   3.14155
   D16        0.00339  -0.00008   0.00054  -0.00336  -0.00281   0.00058
   D17        0.00222  -0.00006   0.00028  -0.00227  -0.00198   0.00023
   D18       -3.13888  -0.00005   0.00065  -0.00251  -0.00186  -3.14074
   D19       -3.11734  -0.00003   0.00031  -0.00264  -0.00233  -3.11967
   D20        0.02461  -0.00005   0.00045  -0.00340  -0.00296   0.02165
   D21        0.02378  -0.00004  -0.00005  -0.00241  -0.00245   0.02132
   D22       -3.11747  -0.00006   0.00009  -0.00317  -0.00308  -3.12054
   D23        0.00084  -0.00001   0.00033  -0.00090  -0.00057   0.00027
   D24       -3.14019  -0.00005   0.00007  -0.00159  -0.00152   3.14148
   D25       -3.14112   0.00000   0.00020  -0.00012   0.00008  -3.14103
   D26        0.00104  -0.00003  -0.00007  -0.00080  -0.00087   0.00017
         Item               Value     Threshold  Converged?
 Maximum Force            0.007551     0.000450     NO 
 RMS     Force            0.001574     0.000300     NO 
 Maximum Displacement     0.065521     0.001800     NO 
 RMS     Displacement     0.017006     0.001200     NO 
 Predicted change in Energy=-2.009492D-04
 GradGradGradGradGradGradGradGradGradGradGradGradGradGradGradGradGradGrad

                          Input orientation:                          
 ---------------------------------------------------------------------
 Center     Atomic      Atomic             Coordinates (Angstroms)
 Number     Number       Type             X           Y           Z
 ---------------------------------------------------------------------
      1          6           0       -0.002956    0.023592    0.014209
      2          6           0       -0.013354   -0.006581    1.490851
      3          1           0        1.053394    0.072579   -0.357535
      4          1           0       -0.547957    0.925043   -0.365228
      5          1           0       -0.484939   -0.888594   -0.419946
      6          6           0       -0.027568   -1.142733    2.204501
      7          1           0        0.003354    0.977101    1.989298
      8          6           0       -0.022815   -1.164676    3.649445
      9          1           0       -0.044801   -2.124617    1.698601
     10          6           0        0.028889   -2.304067    4.360687
     11          1           0       -0.064075   -0.184923    4.157075
     12          6           0        0.033744   -2.327128    5.806568
     13          1           0        0.070984   -3.284309    3.853639
     14          6           0        0.109376   -3.453139    6.520672
     15          1           0       -0.029280   -1.346002    6.310259
     16          1           0        0.173765   -4.445656    6.056103
     17          1           0        0.111375   -3.443356    7.618352
 ---------------------------------------------------------------------
                    Distance matrix (angstroms):
                    1          2          3          4          5
     1  C    0.000000
     2  C    1.476986   0.000000
     3  H    1.120923   2.135591   0.000000
     4  H    1.119648   2.144470   1.814133   0.000000
     5  H    1.119323   2.156730   1.814998   1.815557   0.000000
     6  C    2.481592   1.341768   3.034714   3.339163   2.676098
     7  H    2.193216   1.102887   2.725504   2.418769   3.086051
     8  C    3.824568   2.449654   4.329540   4.556347   4.104842
     9  H    2.730152   2.128433   3.203342   3.716582   2.491930
    10  C    4.930607   3.676437   5.381420   5.752753   5.012189
    11  H    4.148560   2.672664   4.657977   4.681601   4.649883
    12  C    6.251293   4.900263   6.692866   7.000433   6.411544
    13  H    5.068422   4.041458   5.474287   5.991709   4.930723
    14  C    7.377963   6.098600   7.786629   8.186341   7.423091
    15  H    6.443348   5.002100   6.902466   7.070276   6.761103
    16  H    7.517306   6.370395   7.894489   8.402308   7.417938
    17  H    8.357978   7.026611   8.767211   9.124428   8.455569
                    6          7          8          9         10
     6  C    0.000000
     7  H    2.130955   0.000000
     8  C    1.445119   2.709979   0.000000
     9  H    1.104684   3.115683   2.174342   0.000000
    10  C    2.449698   4.048481   1.344154   2.669144   0.000000
    11  H    2.175151   2.460509   1.104223   3.131594   2.130932
    12  C    3.792287   5.048803   2.451056   4.113705   1.446073
    13  H    2.704758   4.651877   2.131511   2.449996   1.104421
    14  C    4.897557   6.338109   3.674028   5.004109   2.447934
    15  H    4.110787   4.905974   2.666993   4.676951   2.173040
    16  H    5.077861   6.780431   4.073754   4.941945   2.735293
    17  H    5.884043   7.158098   4.578495   6.066870   3.452125
                   11         12         13         14         15
    11  H    0.000000
    12  C    2.705446   0.000000
    13  H    3.117132   2.175205   0.000000
    14  C    4.037067   1.335501   2.672647   0.000000
    15  H    2.446532   1.104665   3.130826   2.122151   0.000000
    16  H    4.670838   2.137764   2.492015   1.097752   3.116677
    17  H    4.756954   2.129449   3.768288   1.097726   2.475840
                   16         17
    16  H    0.000000
    17  H    1.857180   0.000000
 Stoichiometry    C7H10
 Framework group  C1[X(C7H10)]
 Deg. of freedom    45
 Full point group                 C1      NOp   1
 Largest Abelian subgroup         C1      NOp   1
 Largest concise Abelian subgroup C1      NOp   1
                         Standard orientation:                         
 ---------------------------------------------------------------------
 Center     Atomic      Atomic             Coordinates (Angstroms)
 Number     Number       Type             X           Y           Z
 ---------------------------------------------------------------------
      1          6           0        3.653360   -0.255869    0.021564
      2          6           0        2.334655    0.409313    0.015290
      3          1           0        3.990351   -0.421807    1.077675
      4          1           0        4.418014    0.380504   -0.492192
      5          1           0        3.616552   -1.248576   -0.494249
      6          6           0        1.172462   -0.259200   -0.037023
      7          1           0        2.354467    1.510718    0.068911
      8          6           0       -0.114590    0.397903   -0.027972
      9          1           0        1.160084   -1.362489   -0.091130
     10          6           0       -1.277070   -0.276789   -0.014535
     11          1           0       -0.103941    1.502065   -0.032390
     12          6           0       -2.565475    0.379762   -0.005419
     13          1           0       -1.288474   -1.381138   -0.009297
     14          6           0       -3.724547   -0.282570    0.032419
     15          1           0       -2.550406    1.484015   -0.031552
     16          1           0       -3.779534   -1.378607    0.059647
     17          1           0       -4.689877    0.240020    0.038630
 ---------------------------------------------------------------------
 Rotational constants (GHZ):     19.9814211      0.8291431      0.8004728
 Standard basis: VSTO-6G (5D, 7F)
 There are    38 symmetry adapted cartesian basis functions of A   symmetry.
 There are    38 symmetry adapted basis functions of A   symmetry.
    38 basis functions,   228 primitive gaussians,    38 cartesian basis functions
    19 alpha electrons       19 beta electrons
       nuclear repulsion energy       155.7414270690 Hartrees.
 Integral buffers will be    131072 words long.
 Regular integral format.
 Two-electron integral symmetry is turned off.
 Do NDO integrals.
 One-electron integrals computed using PRISM.
 NBasis=    38 RedAO= F EigKep=  0.00D+00  NBF=    38
 NBsUse=    38 1.00D-04 EigRej=  0.00D+00 NBFU=    38
 Initial guess from the checkpoint file:  "/blue/chm6586/le.chen/hw2/homo/Gau-42477.chk"
 B after Tr=     0.000000    0.000000    0.000000
         Rot=    0.999996    0.002778   -0.000033   -0.000090 Ang=   0.32 deg.
 Overlap will be assumed to be unity.
 Keep J ints in memory in canonical form, NReq=897485.
 Requested convergence on RMS density matrix=1.00D-08 within 128 cycles.
 Requested convergence on MAX density matrix=1.00D-06.
 Requested convergence on             energy=1.00D-06.
 No special actions if energy rises.
 SCF Done:  E(RAM1) =  0.523624586455E-01 A.U. after   10 cycles
            NFock=  9  Conv=0.92D-08     -V/T= 1.0022
 Calling FoFJK, ICntrl=      2127 FMM=F ISym2X=0 I1Cent= 0 IOpClX= 0 NMat=1 NMatS=1 NMatT=0.
 ***** Axes restored to original set *****
 -------------------------------------------------------------------
 Center     Atomic                   Forces (Hartrees/Bohr)
 Number     Number              X              Y              Z
 -------------------------------------------------------------------
      1        6          -0.000486713    0.000279071    0.000981458
      2        6           0.000053008   -0.000382018   -0.001876848
      3        1          -0.000727859    0.000149596    0.000131955
      4        1           0.000452570   -0.000974590    0.000362458
      5        1           0.000717011    0.000704599    0.000279170
      6        6          -0.000296571    0.000646549   -0.001504918
      7        1           0.000199878   -0.000222606   -0.000154011
      8        6          -0.000074506    0.000832357   -0.000007855
      9        1           0.000060218    0.000414895    0.000176830
     10        6          -0.000077412   -0.000860865   -0.000723408
     11        1           0.000103858   -0.000061376   -0.000098984
     12        6           0.000033299   -0.000073773    0.001517027
     13        1           0.000000505    0.000279274    0.000201405
     14        6          -0.000018989    0.000062753    0.000649373
     15        1           0.000029933   -0.000059810   -0.000186672
     16        1          -0.000006874   -0.000138648    0.000504077
     17        1           0.000038642   -0.000595408   -0.000251057
 -------------------------------------------------------------------
 Cartesian Forces:  Max     0.001876848 RMS     0.000569861

 GradGradGradGradGradGradGradGradGradGradGradGradGradGradGradGradGradGrad
 Berny optimization.
 Using GEDIIS/GDIIS optimizer.
 FormGI is forming the generalized inverse of G from B-inverse, IUseBI=4.
 Internal  Forces:  Max     0.002245542 RMS     0.000593203
 Search for a local minimum.
 Step number   3 out of a maximum of   76
 All quantities printed in internal units (Hartrees-Bohrs-Radians)
 Mixed Optimization -- En-DIIS/RFO-DIIS
 Update second derivatives using D2CorX and points    1    2    3
 DE= -1.94D-04 DEPred=-2.01D-04 R= 9.66D-01
 TightC=F SS=  1.41D+00  RLast= 6.67D-02 DXNew= 7.4491D-01 2.0023D-01
 Trust test= 9.66D-01 RLast= 6.67D-02 DXMaxT set to 4.43D-01
 ITU=  1  1  0
 Use linear search instead of GDIIS.
     Eigenvalues ---    0.00726   0.01468   0.01516   0.01704   0.02203
     Eigenvalues ---    0.02211   0.02214   0.02236   0.02830   0.02858
     Eigenvalues ---    0.02897   0.02898   0.07161   0.07441   0.13252
     Eigenvalues ---    0.15999   0.16000   0.16000   0.16000   0.16000
     Eigenvalues ---    0.16000   0.16000   0.16061   0.16353   0.21113
     Eigenvalues ---    0.22000   0.22000   0.22024   0.22416   0.33795
     Eigenvalues ---    0.34264   0.34300   0.34691   0.34975   0.35029
     Eigenvalues ---    0.35080   0.35153   0.35314   0.35355   0.37022
     Eigenvalues ---    0.39012   0.43054   0.56762   0.57135   0.80289
 RFO step:  Lambda=-9.25989083D-05 EMin= 7.25827825D-03
 Quartic linear search produced a step of -0.02676.
 Iteration  1 RMS(Cart)=  0.01673877 RMS(Int)=  0.00021492
 Iteration  2 RMS(Cart)=  0.00022717 RMS(Int)=  0.00000096
 Iteration  3 RMS(Cart)=  0.00000004 RMS(Int)=  0.00000095
 Variable       Old X    -DE/DX   Delta X   Delta X   Delta X     New X
                                 (Linear)    (Quad)   (Total)
    R1        2.79110  -0.00175  -0.00016  -0.00395  -0.00411   2.78699
    R2        2.11824  -0.00072  -0.00002  -0.00119  -0.00122   2.11702
    R3        2.11583  -0.00113   0.00006  -0.00325  -0.00318   2.11264
    R4        2.11521  -0.00099   0.00001  -0.00239  -0.00238   2.11284
    R5        2.53557  -0.00023   0.00008  -0.00111  -0.00104   2.53453
    R6        2.08415  -0.00027  -0.00006   0.00022   0.00016   2.08432
    R7        2.73088   0.00161   0.00016   0.00243   0.00259   2.73347
    R8        2.08755  -0.00045   0.00002  -0.00108  -0.00106   2.08649
    R9        2.54008   0.00208   0.00030   0.00063   0.00093   2.54101
   R10        2.08668  -0.00010   0.00000   0.00012   0.00012   2.08680
   R11        2.73268   0.00225   0.00018   0.00389   0.00406   2.73675
   R12        2.08705  -0.00034   0.00004  -0.00100  -0.00095   2.08610
   R13        2.52373   0.00105   0.00027  -0.00092  -0.00065   2.52308
   R14        2.08751  -0.00014  -0.00001   0.00013   0.00012   2.08763
   R15        2.07445  -0.00009   0.00000   0.00004   0.00004   2.07449
   R16        2.07440  -0.00026   0.00002  -0.00063  -0.00061   2.07379
    A1        1.91675   0.00011  -0.00015   0.00184   0.00169   1.91844
    A2        1.93032  -0.00001  -0.00021   0.00225   0.00203   1.93235
    A3        1.94776   0.00015  -0.00026   0.00354   0.00328   1.95104
    A4        1.88719  -0.00010   0.00025  -0.00329  -0.00305   1.88415
    A5        1.88891  -0.00016   0.00027  -0.00398  -0.00371   1.88521
    A6        1.89134  -0.00001   0.00012  -0.00073  -0.00061   1.89073
    A7        2.15211   0.00043  -0.00022   0.00420   0.00398   2.15609
    A8        2.01919  -0.00026   0.00004  -0.00177  -0.00173   2.01745
    A9        2.11183  -0.00017   0.00019  -0.00242  -0.00223   2.10959
   A10        2.14675   0.00037   0.00000   0.00155   0.00155   2.14830
   A11        2.10507  -0.00022  -0.00011   0.00035   0.00024   2.10531
   A12        2.03137  -0.00015   0.00011  -0.00190  -0.00179   2.02958
   A13        2.14370   0.00068  -0.00005   0.00360   0.00355   2.14725
   A14        2.03316  -0.00040   0.00005  -0.00255  -0.00251   2.03066
   A15        2.10633  -0.00028   0.00000  -0.00105  -0.00105   2.10528
   A16        2.14446   0.00061   0.00007   0.00190   0.00197   2.14643
   A17        2.10702  -0.00025  -0.00007  -0.00014  -0.00021   2.10681
   A18        2.03171  -0.00036   0.00000  -0.00176  -0.00176   2.02995
   A19        2.15109   0.00067  -0.00005   0.00361   0.00355   2.15465
   A20        2.02812  -0.00048   0.00021  -0.00480  -0.00459   2.02353
   A21        2.10397  -0.00019  -0.00015   0.00119   0.00104   2.10501
   A22        2.14045   0.00030  -0.00008   0.00270   0.00262   2.14307
   A23        2.12619   0.00047  -0.00016   0.00467   0.00451   2.13070
   A24        2.01654  -0.00077   0.00024  -0.00737  -0.00713   2.00941
    D1       -1.61810  -0.00023   0.00051  -0.02925  -0.02874  -1.64684
    D2        1.51134  -0.00019   0.00062  -0.02829  -0.02767   1.48368
    D3        2.58357  -0.00017   0.00043  -0.02774  -0.02730   2.55626
    D4       -0.57018  -0.00013   0.00054  -0.02678  -0.02623  -0.59641
    D5        0.47662  -0.00026   0.00059  -0.03073  -0.03014   0.44648
    D6       -2.67712  -0.00022   0.00070  -0.02977  -0.02907  -2.70619
    D7        3.12933  -0.00003   0.00023  -0.00299  -0.00276   3.12656
    D8       -0.01332  -0.00004   0.00024  -0.00366  -0.00342  -0.01674
    D9        0.00051  -0.00007   0.00011  -0.00401  -0.00390  -0.00339
   D10        3.14104  -0.00008   0.00013  -0.00467  -0.00455   3.13650
   D11       -3.08316  -0.00011   0.00022  -0.00981  -0.00959  -3.09275
   D12        0.05817  -0.00012   0.00024  -0.01044  -0.01020   0.04797
   D13        0.05945  -0.00011   0.00020  -0.00917  -0.00897   0.05048
   D14       -3.08241  -0.00012   0.00023  -0.00980  -0.00957  -3.09198
   D15        3.14155  -0.00003   0.00008  -0.00206  -0.00199   3.13956
   D16        0.00058  -0.00003   0.00008  -0.00196  -0.00188  -0.00130
   D17        0.00023  -0.00003   0.00005  -0.00141  -0.00136  -0.00112
   D18       -3.14074  -0.00002   0.00005  -0.00130  -0.00125   3.14119
   D19       -3.11967  -0.00004   0.00006  -0.00317  -0.00311  -3.12278
   D20        0.02165  -0.00003   0.00008  -0.00313  -0.00305   0.01859
   D21        0.02132  -0.00004   0.00007  -0.00327  -0.00321   0.01812
   D22       -3.12054  -0.00004   0.00008  -0.00323  -0.00315  -3.12369
   D23        0.00027  -0.00001   0.00002  -0.00059  -0.00057  -0.00030
   D24        3.14148   0.00000   0.00004  -0.00031  -0.00027   3.14121
   D25       -3.14103  -0.00002   0.00000  -0.00063  -0.00063   3.14152
   D26        0.00017   0.00000   0.00002  -0.00035  -0.00033  -0.00015
         Item               Value     Threshold  Converged?
 Maximum Force            0.002246     0.000450     NO 
 RMS     Force            0.000593     0.000300     NO 
 Maximum Displacement     0.073065     0.001800     NO 
 RMS     Displacement     0.016736     0.001200     NO 
 Predicted change in Energy=-4.665395D-05
 GradGradGradGradGradGradGradGradGradGradGradGradGradGradGradGradGradGrad

                          Input orientation:                          
 ---------------------------------------------------------------------
 Center     Atomic      Atomic             Coordinates (Angstroms)
 Number     Number       Type             X           Y           Z
 ---------------------------------------------------------------------
      1          6           0       -0.004398    0.027606    0.012989
      2          6           0       -0.014354   -0.008175    1.487331
      3          1           0        1.048773    0.111243   -0.359647
      4          1           0       -0.574907    0.911625   -0.364993
      5          1           0       -0.454723   -0.896073   -0.427571
      6          6           0       -0.025148   -1.143780    2.200879
      7          1           0       -0.001396    0.974606    1.987851
      8          6           0       -0.016641   -1.167776    3.647147
      9          1           0       -0.042951   -2.125372    1.695656
     10          6           0        0.027570   -2.306422    4.361012
     11          1           0       -0.047924   -0.187068    4.153785
     12          6           0        0.038508   -2.329176    5.809016
     13          1           0        0.058501   -3.287587    3.856045
     14          6           0        0.103207   -3.453008    6.526973
     15          1           0       -0.010365   -1.344857    6.308161
     16          1           0        0.152931   -4.449263    6.068600
     17          1           0        0.110452   -3.443989    7.624316
 ---------------------------------------------------------------------
                    Distance matrix (angstroms):
                    1          2          3          4          5
     1  C    0.000000
     2  C    1.474810   0.000000
     3  H    1.120278   2.134439   0.000000
     4  H    1.117963   2.142745   1.810242   0.000000
     5  H    1.118064   2.156186   1.811022   1.812770   0.000000
     6  C    2.481821   1.341218   3.047078   3.333260   2.674817
     7  H    2.190182   1.102972   2.712747   2.422551   3.088561
     8  C    3.825727   2.451425   4.338824   4.553332   4.107197
     9  H    2.732795   2.127613   3.227782   3.708450   2.487735
    10  C    4.934978   3.679910   5.401164   5.749254   5.015199
    11  H    4.146585   2.672659   4.654331   4.680191   4.653708
    12  C    6.257011   4.905793   6.710342   6.999818   6.418106
    13  H    5.075779   4.046066   5.504974   5.987633   4.932758
    14  C    7.386355   6.105627   7.811755   8.185906   7.430672
    15  H    6.443049   5.002713   6.906639   7.066923   6.765275
    16  H    7.532432   6.382732   7.932408   8.405949   7.429309
    17  H    8.366449   7.034414   8.789982   9.125248   8.464289
                    6          7          8          9         10
     6  C    0.000000
     7  H    2.129203   0.000000
     8  C    1.446492   2.709852   0.000000
     9  H    1.104124   3.113995   2.173936   0.000000
    10  C    2.453709   4.049429   1.344645   2.672429   0.000000
    11  H    2.174777   2.458236   1.104287   3.130406   2.130798
    12  C    3.798403   5.051522   2.454704   4.119211   1.448224
    13  H    2.709701   4.654033   2.131404   2.455263   1.103917
    14  C    4.905517   6.341793   3.678321   5.012545   2.451891
    15  H    4.112228   4.903577   2.666907   4.678191   2.171966
    16  H    5.090893   6.789307   4.081709   4.955954   2.742871
    17  H    5.892624   7.162837   4.584231   6.075467   3.456890
                   11         12         13         14         15
    11  H    0.000000
    12  C    2.708484   0.000000
    13  H    3.116599   2.175556   0.000000
    14  C    4.039953   1.335157   2.676419   0.000000
    15  H    2.446062   1.104726   3.129188   2.122517   0.000000
    16  H    4.676875   2.138982   2.500761   1.097772   3.117916
    17  H    4.762059   2.131502   3.771873   1.097404   2.480568
                   16         17
    16  H    0.000000
    17  H    1.852737   0.000000
 Stoichiometry    C7H10
 Framework group  C1[X(C7H10)]
 Deg. of freedom    45
 Full point group                 C1      NOp   1
 Largest Abelian subgroup         C1      NOp   1
 Largest concise Abelian subgroup C1      NOp   1
                         Standard orientation:                         
 ---------------------------------------------------------------------
 Center     Atomic      Atomic             Coordinates (Angstroms)
 Number     Number       Type             X           Y           Z
 ---------------------------------------------------------------------
      1          6           0        3.656488   -0.252003    0.020945
      2          6           0        2.337163    0.407038    0.010426
      3          1           0        4.010775   -0.379997    1.075990
      4          1           0        4.411902    0.366598   -0.523594
      5          1           0        3.619447   -1.262397   -0.456339
      6          6           0        1.175278   -0.261523   -0.033336
      7          1           0        2.354751    1.509076    0.052277
      8          6           0       -0.113972    0.394301   -0.025064
      9          1           0        1.162468   -1.364586   -0.079997
     10          6           0       -1.278297   -0.278227   -0.013934
     11          1           0       -0.102167    1.498522   -0.027493
     12          6           0       -2.568533    0.379443   -0.003195
     13          1           0       -1.291788   -1.382059   -0.011869
     14          6           0       -3.729815   -0.278617    0.028849
     15          1           0       -2.548181    1.483803   -0.023104
     16          1           0       -3.791790   -1.374448    0.049273
     17          1           0       -4.695289    0.243009    0.036712
 ---------------------------------------------------------------------
 Rotational constants (GHZ):     20.0896657      0.8271808      0.7987562
 Standard basis: VSTO-6G (5D, 7F)
 There are    38 symmetry adapted cartesian basis functions of A   symmetry.
 There are    38 symmetry adapted basis functions of A   symmetry.
    38 basis functions,   228 primitive gaussians,    38 cartesian basis functions
    19 alpha electrons       19 beta electrons
       nuclear repulsion energy       155.6926211094 Hartrees.
 Integral buffers will be    131072 words long.
 Regular integral format.
 Two-electron integral symmetry is turned off.
 Do NDO integrals.
 One-electron integrals computed using PRISM.
 NBasis=    38 RedAO= F EigKep=  0.00D+00  NBF=    38
 NBsUse=    38 1.00D-04 EigRej=  0.00D+00 NBFU=    38
 Initial guess from the checkpoint file:  "/blue/chm6586/le.chen/hw2/homo/Gau-42477.chk"
 B after Tr=     0.000000    0.000000    0.000000
         Rot=    0.999996    0.002990   -0.000061    0.000031 Ang=   0.34 deg.
 Overlap will be assumed to be unity.
 Keep J ints in memory in canonical form, NReq=897485.
 Requested convergence on RMS density matrix=1.00D-08 within 128 cycles.
 Requested convergence on MAX density matrix=1.00D-06.
 Requested convergence on             energy=1.00D-06.
 No special actions if energy rises.
 SCF Done:  E(RAM1) =  0.523008304080E-01 A.U. after   10 cycles
            NFock=  9  Conv=0.76D-08     -V/T= 1.0022
 Calling FoFJK, ICntrl=      2127 FMM=F ISym2X=0 I1Cent= 0 IOpClX= 0 NMat=1 NMatS=1 NMatT=0.
 ***** Axes restored to original set *****
 -------------------------------------------------------------------
 Center     Atomic                   Forces (Hartrees/Bohr)
 Number     Number              X              Y              Z
 -------------------------------------------------------------------
      1        6           0.000095600   -0.000205835   -0.000348046
      2        6          -0.000025152    0.000387626   -0.000223057
      3        1           0.000040283    0.000207224    0.000196408
      4        1          -0.000312168    0.000056529    0.000180084
      5        1           0.000118785   -0.000121591    0.000160962
      6        6          -0.000366298   -0.000489039    0.000136340
      7        1           0.000311211   -0.000033334   -0.000073236
      8        6          -0.000059930    0.000709826   -0.000136556
      9        1           0.000139350    0.000055753   -0.000030831
     10        6          -0.000059691   -0.000669126    0.000253019
     11        1           0.000100246   -0.000078106   -0.000032477
     12        6          -0.000057813    0.000851088   -0.000401331
     13        1           0.000033721    0.000030335    0.000031724
     14        6          -0.000003623   -0.000512596    0.000222534
     15        1           0.000042866   -0.000161025    0.000046280
     16        1           0.000003173   -0.000032539    0.000023590
     17        1          -0.000000559    0.000004809   -0.000005407
 -------------------------------------------------------------------
 Cartesian Forces:  Max     0.000851088 RMS     0.000260367

 GradGradGradGradGradGradGradGradGradGradGradGradGradGradGradGradGradGrad
 Berny optimization.
 Using GEDIIS/GDIIS optimizer.
 FormGI is forming the generalized inverse of G from B-inverse, IUseBI=4.
 Internal  Forces:  Max     0.000584197 RMS     0.000150105
 Search for a local minimum.
 Step number   4 out of a maximum of   76
 All quantities printed in internal units (Hartrees-Bohrs-Radians)
 Mixed Optimization -- En-DIIS/RFO-DIIS
 Swapping is turned off.
 Update second derivatives using D2CorX and points    1    2    3    4
 DE= -6.16D-05 DEPred=-4.67D-05 R= 1.32D+00
 TightC=F SS=  1.41D+00  RLast= 7.43D-02 DXNew= 7.4491D-01 2.2301D-01
 Trust test= 1.32D+00 RLast= 7.43D-02 DXMaxT set to 4.43D-01
 ITU=  1  1  1  0
     Eigenvalues ---    0.00321   0.01437   0.01516   0.01703   0.02204
     Eigenvalues ---    0.02213   0.02215   0.02238   0.02856   0.02890
     Eigenvalues ---    0.02898   0.02898   0.07228   0.07420   0.15278
     Eigenvalues ---    0.16000   0.16000   0.16000   0.16000   0.16000
     Eigenvalues ---    0.16000   0.16029   0.16048   0.17424   0.21847
     Eigenvalues ---    0.22000   0.22009   0.22026   0.23475   0.33805
     Eigenvalues ---    0.34269   0.34319   0.34908   0.35005   0.35028
     Eigenvalues ---    0.35080   0.35165   0.35306   0.35357   0.37746
     Eigenvalues ---    0.39061   0.47921   0.57135   0.58510   0.78622
 En-DIIS/RFO-DIIS IScMMF=        0 using points:     4    3
 RFO step:  Lambda=-5.79846531D-06.
 DidBck=F Rises=F RFO-DIIS coefs:    1.48635   -0.48635
 Iteration  1 RMS(Cart)=  0.02953300 RMS(Int)=  0.00073906
 Iteration  2 RMS(Cart)=  0.00077654 RMS(Int)=  0.00000100
 Iteration  3 RMS(Cart)=  0.00000048 RMS(Int)=  0.00000093
 Variable       Old X    -DE/DX   Delta X   Delta X   Delta X     New X
                                 (Linear)    (Quad)   (Total)
    R1        2.78699  -0.00019  -0.00200  -0.00050  -0.00250   2.78449
    R2        2.11702  -0.00001  -0.00059   0.00055  -0.00005   2.11697
    R3        2.11264   0.00014  -0.00155   0.00032  -0.00123   2.11141
    R4        2.11284  -0.00001  -0.00116   0.00009  -0.00107   2.11177
    R5        2.53453   0.00030  -0.00051   0.00015  -0.00036   2.53418
    R6        2.08432  -0.00006   0.00008   0.00054   0.00061   2.08493
    R7        2.73347   0.00000   0.00126  -0.00090   0.00036   2.73384
    R8        2.08649  -0.00004  -0.00051  -0.00009  -0.00061   2.08589
    R9        2.54101   0.00050   0.00045  -0.00075  -0.00029   2.54072
   R10        2.08680  -0.00009   0.00006   0.00001   0.00007   2.08687
   R11        2.73675  -0.00012   0.00198  -0.00124   0.00074   2.73748
   R12        2.08610  -0.00004  -0.00046  -0.00026  -0.00072   2.08538
   R13        2.52308   0.00058  -0.00032  -0.00057  -0.00088   2.52220
   R14        2.08763  -0.00012   0.00006  -0.00007  -0.00002   2.08761
   R15        2.07449   0.00002   0.00002   0.00034   0.00036   2.07485
   R16        2.07379  -0.00001  -0.00030   0.00001  -0.00028   2.07351
    A1        1.91844  -0.00019   0.00082  -0.00038   0.00044   1.91887
    A2        1.93235  -0.00029   0.00099  -0.00105  -0.00007   1.93229
    A3        1.95104  -0.00014   0.00160   0.00091   0.00250   1.95354
    A4        1.88415   0.00024  -0.00148  -0.00004  -0.00152   1.88263
    A5        1.88521   0.00022  -0.00180  -0.00015  -0.00196   1.88325
    A6        1.89073   0.00020  -0.00030   0.00072   0.00042   1.89115
    A7        2.15609  -0.00005   0.00194   0.00185   0.00378   2.15987
    A8        2.01745  -0.00003  -0.00084  -0.00101  -0.00185   2.01560
    A9        2.10959   0.00008  -0.00109  -0.00083  -0.00192   2.10767
   A10        2.14830  -0.00005   0.00075  -0.00029   0.00047   2.14876
   A11        2.10531  -0.00003   0.00012   0.00077   0.00089   2.10620
   A12        2.02958   0.00008  -0.00087  -0.00048  -0.00135   2.02822
   A13        2.14725  -0.00016   0.00173  -0.00024   0.00149   2.14873
   A14        2.03066   0.00009  -0.00122  -0.00019  -0.00140   2.02925
[...]
 ! R2    R(1,3)                  1.1195         -DE/DX =    0.0                 !
 ! R3    R(1,4)                  1.1195         -DE/DX =    0.0                 !
 ! R4    R(1,5)                  1.1177         -DE/DX =    0.0                 !
 ! R5    R(2,6)                  1.3413         -DE/DX =    0.0                 !
 ! R6    R(2,7)                  1.1031         -DE/DX =    0.0                 !
 ! R7    R(6,8)                  1.4466         -DE/DX =    0.0                 !
 ! R8    R(6,9)                  1.1041         -DE/DX =    0.0                 !
 ! R9    R(8,10)                 1.3451         -DE/DX =    0.0                 !
 ! R10   R(8,11)                 1.1041         -DE/DX =    0.0                 !
 ! R11   R(10,12)                1.448          -DE/DX =    0.0                 !
 ! R12   R(10,13)                1.1038         -DE/DX =    0.0                 !
 ! R13   R(12,14)                1.3357         -DE/DX =    0.0                 !
 ! R14   R(12,15)                1.1045         -DE/DX =    0.0                 !
 ! R15   R(14,16)                1.0978         -DE/DX =    0.0                 !
 ! R16   R(14,17)                1.0974         -DE/DX =    0.0                 !
 ! A1    A(2,1,3)              110.0214         -DE/DX =    0.0                 !
 ! A2    A(2,1,4)              110.0211         -DE/DX =    0.0                 !
 ! A3    A(2,1,5)              112.0239         -DE/DX =    0.0                 !
 ! A4    A(3,1,4)              108.0134         -DE/DX =    0.0                 !
 ! A5    A(3,1,5)              108.3244         -DE/DX =    0.0                 !
 ! A6    A(4,1,5)              108.3277         -DE/DX =    0.0                 !
 ! A7    A(1,2,6)              123.7556         -DE/DX =    0.0                 !
 ! A8    A(1,2,7)              115.2982         -DE/DX =    0.0                 !
 ! A9    A(6,2,7)              120.9463         -DE/DX =    0.0                 !
 ! A10   A(2,6,8)              123.047          -DE/DX =    0.0                 !
 ! A11   A(2,6,9)              120.6557         -DE/DX =    0.0                 !
 ! A12   A(8,6,9)              116.2972         -DE/DX =    0.0                 !
 ! A13   A(6,8,10)             122.969          -DE/DX =    0.0                 !
 ! A14   A(6,8,11)             116.3935         -DE/DX =    0.0                 !
 ! A15   A(10,8,11)            120.6376         -DE/DX =    0.0                 !
 ! A16   A(8,10,12)            122.9684         -DE/DX =    0.0                 !
 ! A17   A(8,10,13)            120.7158         -DE/DX =    0.0                 !
 ! A18   A(12,10,13)           116.3158         -DE/DX =    0.0                 !
 ! A19   A(10,12,14)           123.3897         -DE/DX =    0.0                 !
 ! A20   A(10,12,15)           116.0377         -DE/DX =    0.0                 !
 ! A21   A(14,12,15)           120.5726         -DE/DX =    0.0                 !
 ! A22   A(12,14,16)           122.8062         -DE/DX =    0.0                 !
 ! A23   A(12,14,17)           122.0614         -DE/DX =    0.0                 !
 ! A24   A(16,14,17)           115.1325         -DE/DX =    0.0                 !
 ! D1    D(3,1,2,6)           -120.5518         -DE/DX =    0.0                 !
 ! D2    D(3,1,2,7)             59.4498         -DE/DX =    0.0                 !
 ! D3    D(4,1,2,6)            120.5614         -DE/DX =    0.0                 !
 ! D4    D(4,1,2,7)            -59.4369         -DE/DX =    0.0                 !
 ! D5    D(5,1,2,6)              0.0028         -DE/DX =    0.0                 !
 ! D6    D(5,1,2,7)           -179.9955         -DE/DX =    0.0                 !
 ! D7    D(1,2,6,8)            180.0016         -DE/DX =    0.0                 !
 ! D8    D(1,2,6,9)             -0.0004         -DE/DX =    0.0                 !
 ! D9    D(7,2,6,8)             -0.0001         -DE/DX =    0.0                 !
 ! D10   D(7,2,6,9)           -180.0022         -DE/DX =    0.0                 !
 ! D11   D(2,6,8,10)          -179.9638         -DE/DX =    0.0                 !
 ! D12   D(2,6,8,11)             0.0375         -DE/DX =    0.0                 !
 ! D13   D(9,6,8,10)             0.0382         -DE/DX =    0.0                 !
 ! D14   D(9,6,8,11)          -179.9605         -DE/DX =    0.0                 !
 ! D15   D(6,8,10,12)         -179.997          -DE/DX =    0.0                 !
 ! D16   D(6,8,10,13)            0.001          -DE/DX =    0.0                 !
 ! D17   D(11,8,10,12)           0.0016         -DE/DX =    0.0                 !
 ! D18   D(11,8,10,13)        -180.0003         -DE/DX =    0.0                 !
 ! D19   D(8,10,12,14)         179.917          -DE/DX =    0.0                 !
 ! D20   D(8,10,12,15)          -0.0829         -DE/DX =    0.0                 !
 ! D21   D(13,10,12,14)         -0.0811         -DE/DX =    0.0                 !
 ! D22   D(13,10,12,15)        179.919          -DE/DX =    0.0                 !
 ! D23   D(10,12,14,16)          0.0019         -DE/DX =    0.0                 !
 ! D24   D(10,12,14,17)       -179.999          -DE/DX =    0.0                 !
 ! D25   D(15,12,14,16)        180.0018         -DE/DX =    0.0                 !
 ! D26   D(15,12,14,17)          0.0009         -DE/DX =    0.0                 !
 --------------------------------------------------------------------------------
 GradGradGradGradGradGradGradGradGradGradGradGradGradGradGradGradGradGrad

                          Input orientation:                          
 ---------------------------------------------------------------------
 Center     Atomic      Atomic             Coordinates (Angstroms)
 Number     Number       Type             X           Y           Z
 ---------------------------------------------------------------------
      1          6           0       -0.019659    0.026729    0.011194
      2          6           0        0.030751   -0.013535    1.484180
      3          1           0        0.899085    0.524679   -0.390280
      4          1           0       -0.908893    0.617379   -0.325864
      5          1           0       -0.087931   -0.996195   -0.433952
      6          6           0       -0.001770   -1.147174    2.200301
      7          1           0        0.098712    0.969223    1.980554
      8          6           0        0.048582   -1.168816    3.645845
      9          1           0       -0.069874   -2.128262    1.698499
     10          6           0        0.016576   -2.306666    4.362414
     11          1           0        0.116021   -0.188554    4.149315
     12          6           0        0.066915   -2.328313    5.809414
     13          1           0       -0.050841   -3.287406    3.860393
     14          6           0        0.034080   -3.452875    6.529310
     15          1           0        0.135724   -1.344649    6.306897
     16          1           0       -0.033877   -4.449156    6.073387
     17          1           0        0.073535   -3.443873    7.625946
 ---------------------------------------------------------------------
                    Distance matrix (angstroms):
                    1          2          3          4          5
     1  C    0.000000
     2  C    1.474398   0.000000
     3  H    1.119476   2.134778   0.000000
     4  H    1.119469   2.134770   1.811498   0.000000
     5  H    1.117672   2.158457   1.813607   1.813638   0.000000
     6  C    2.484062   1.341278   3.212125   3.212169   2.639983
     7  H    2.186478   1.103096   2.541470   2.541383   3.118901
     8  C    3.826836   2.451079   4.458878   4.458893   4.085729
     9  H    2.737427   2.127940   3.512830   3.512911   2.414384
    10  C    4.937526   3.680065   5.602092   5.602364   4.973267
    11  H    4.145938   2.672237   4.661525   4.661245   4.658349
    12  C    6.258840   4.905829   6.875193   6.875386   6.385776
    13  H    5.079449   4.046144   5.788141   5.788639   4.867486
    14  C    7.388936   6.105932   8.028070   8.028049   7.384929
    15  H    6.445208   5.004147   6.994948   6.995305   6.753554
    16  H    7.535511   6.382768   8.209047   8.208888   7.366907
    17  H    8.368884   7.034937   8.982807   8.982774   8.424913
                    6          7          8          9         10
     6  C    0.000000
     7  H    2.130146   0.000000
     8  C    1.446582   2.710520   0.000000
     9  H    1.104073   3.114866   2.174103   0.000000
    10  C    2.453464   4.051105   1.345064   2.671281   0.000000
    11  H    2.175197   2.458510   1.104058   3.131058   2.131126
    12  C    3.798092   5.053209   2.454750   4.118052   1.448037
    13  H    2.709041   4.655647   2.131746   2.453113   1.103822
    14  C    4.904881   6.344313   3.678520   5.010204   2.451437
    15  H    4.113639   4.906385   2.668278   4.679065   2.172714
    16  H    5.089686   6.791737   4.081714   4.952523   2.742305
    17  H    5.892208   7.165648   4.584508   6.073387   3.456462
                   11         12         13         14         15
    11  H    0.000000
    12  C    2.708673   0.000000
    13  H    3.116762   2.175410   0.000000
    14  C    4.040654   1.335653   2.675390   0.000000
    15  H    2.447878   1.104454   3.129616   2.122361   0.000000
    16  H    4.677312   2.139583   2.499458   1.097752   3.117892
    17  H    4.762969   2.131738   3.770854   1.097383   2.480020
                   16         17
    16  H    0.000000
    17  H    1.852720   0.000000
 Stoichiometry    C7H10
 Framework group  C1[X(C7H10)]
 Deg. of freedom    45
 Full point group                 C1      NOp   1
 Largest Abelian subgroup         C1      NOp   1
 Largest concise Abelian subgroup C1      NOp   1
                         Standard orientation:                         
 ---------------------------------------------------------------------
 Center     Atomic      Atomic             Coordinates (Angstroms)
 Number     Number       Type             X           Y           Z
 ---------------------------------------------------------------------
      1          6           0        3.658254   -0.250898   -0.000039
      2          6           0        2.337146    0.403719   -0.000097
      3          1           0        4.239050    0.058053    0.905749
      4          1           0        4.239139    0.058090   -0.905749
      5          1           0        3.573775   -1.365373   -0.000030
      6          6           0        1.174231   -0.264602   -0.000079
      7          1           0        2.357564    1.506626   -0.000186
      8          6           0       -0.113912    0.393645   -0.000171
      9          1           0        1.159393   -1.368575   -0.000025
     10          6           0       -1.279196   -0.278151    0.000560
     11          1           0       -0.100930    1.497626   -0.000906
     12          6           0       -2.568629    0.380769    0.000404
     13          1           0       -1.293683   -1.381877    0.001290
     14          6           0       -3.730633   -0.277801   -0.000490
     15          1           0       -2.548774    1.485045    0.001076
     16          1           0       -3.793127   -1.373772   -0.001146
     17          1           0       -4.695979    0.244074   -0.000605
 ---------------------------------------------------------------------
 Rotational constants (GHZ):     20.1469091      0.8268178      0.7983728

 **********************************************************************

            Population analysis using the SCF density.

 **********************************************************************

 Orbital symmetries:
       Occupied  (A) (A) (A) (A) (A) (A) (A) (A) (A) (A) (A) (A)
                 (A) (A) (A) (A) (A) (A) (A)
       Virtual   (A) (A) (A) (A) (A) (A) (A) (A) (A) (A) (A) (A)
                 (A) (A) (A) (A) (A) (A) (A)
 The electronic state is 1-A.
 Alpha  occ. eigenvalues --   -1.36309  -1.28571  -1.16207  -1.00962  -0.83650
 Alpha  occ. eigenvalues --   -0.74832  -0.73521  -0.59922  -0.58390  -0.52456
 Alpha  occ. eigenvalues --   -0.52095  -0.51896  -0.47228  -0.46498  -0.45479
 Alpha  occ. eigenvalues --   -0.44433  -0.43073  -0.39008  -0.31459
 Alpha virt. eigenvalues --   -0.00290   0.05562   0.09544   0.13316   0.14641
 Alpha virt. eigenvalues --    0.14945   0.15681   0.16309   0.16414   0.16552
 Alpha virt. eigenvalues --    0.17454   0.17949   0.18097   0.19154   0.20262
 Alpha virt. eigenvalues --    0.20545   0.21081   0.21551   0.22518
          Condensed to atoms (all electrons):
               1          2          3          4          5          6
     1  C    4.189195   0.000000   0.000000   0.000000   0.000000   0.000000
     2  C    0.000000   4.148753   0.000000   0.000000   0.000000   0.000000
     3  H    0.000000   0.000000   0.915844   0.000000   0.000000   0.000000
     4  H    0.000000   0.000000   0.000000   0.915842   0.000000   0.000000
     5  H    0.000000   0.000000   0.000000   0.000000   0.921116   0.000000
     6  C    0.000000   0.000000   0.000000   0.000000   0.000000   4.145174
     7  H    0.000000   0.000000   0.000000   0.000000   0.000000   0.000000
     8  C    0.000000   0.000000   0.000000   0.000000   0.000000   0.000000
     9  H    0.000000   0.000000   0.000000   0.000000   0.000000   0.000000
    10  C    0.000000   0.000000   0.000000   0.000000   0.000000   0.000000
    11  H    0.000000   0.000000   0.000000   0.000000   0.000000   0.000000
    12  C    0.000000   0.000000   0.000000   0.000000   0.000000   0.000000
    13  H    0.000000   0.000000   0.000000   0.000000   0.000000   0.000000
    14  C    0.000000   0.000000   0.000000   0.000000   0.000000   0.000000
    15  H    0.000000   0.000000   0.000000   0.000000   0.000000   0.000000
    16  H    0.000000   0.000000   0.000000   0.000000   0.000000   0.000000
    17  H    0.000000   0.000000   0.000000   0.000000   0.000000   0.000000
               7          8          9         10         11         12
     1  C    0.000000   0.000000   0.000000   0.000000   0.000000   0.000000
     2  C    0.000000   0.000000   0.000000   0.000000   0.000000   0.000000
     3  H    0.000000   0.000000   0.000000   0.000000   0.000000   0.000000
     4  H    0.000000   0.000000   0.000000   0.000000   0.000000   0.000000
     5  H    0.000000   0.000000   0.000000   0.000000   0.000000   0.000000
     6  C    0.000000   0.000000   0.000000   0.000000   0.000000   0.000000
     7  H    0.880137   0.000000   0.000000   0.000000   0.000000   0.000000
     8  C    0.000000   4.121866   0.000000   0.000000   0.000000   0.000000
     9  H    0.000000   0.000000   0.876847   0.000000   0.000000   0.000000
    10  C    0.000000   0.000000   0.000000   4.132996   0.000000   0.000000
    11  H    0.000000   0.000000   0.000000   0.000000   0.878006   0.000000
    12  C    0.000000   0.000000   0.000000   0.000000   0.000000   4.134233
    13  H    0.000000   0.000000   0.000000   0.000000   0.000000   0.000000
    14  C    0.000000   0.000000   0.000000   0.000000   0.000000   0.000000
    15  H    0.000000   0.000000   0.000000   0.000000   0.000000   0.000000
    16  H    0.000000   0.000000   0.000000   0.000000   0.000000   0.000000
    17  H    0.000000   0.000000   0.000000   0.000000   0.000000   0.000000
              13         14         15         16         17
     1  C    0.000000   0.000000   0.000000   0.000000   0.000000
     2  C    0.000000   0.000000   0.000000   0.000000   0.000000
     3  H    0.000000   0.000000   0.000000   0.000000   0.000000
     4  H    0.000000   0.000000   0.000000   0.000000   0.000000
     5  H    0.000000   0.000000   0.000000   0.000000   0.000000
     6  C    0.000000   0.000000   0.000000   0.000000   0.000000
     7  H    0.000000   0.000000   0.000000   0.000000   0.000000
     8  C    0.000000   0.000000   0.000000   0.000000   0.000000
     9  H    0.000000   0.000000   0.000000   0.000000   0.000000
    10  C    0.000000   0.000000   0.000000   0.000000   0.000000
    11  H    0.000000   0.000000   0.000000   0.000000   0.000000
    12  C    0.000000   0.000000   0.000000   0.000000   0.000000
    13  H    0.876645   0.000000   0.000000   0.000000   0.000000
    14  C    0.000000   4.209290   0.000000   0.000000   0.000000
    15  H    0.000000   0.000000   0.879067   0.000000   0.000000
    16  H    0.000000   0.000000   0.000000   0.888105   0.000000
    17  H    0.000000   0.000000   0.000000   0.000000   0.886885
 Mulliken charges:
               1
     1  C   -0.189195
     2  C   -0.148753
     3  H    0.084156
     4  H    0.084158
     5  H    0.078884
     6  C   -0.145174
     7  H    0.119863
     8  C   -0.121866
     9  H    0.123153
    10  C   -0.132996
    11  H    0.121994
    12  C   -0.134233
    13  H    0.123355
    14  C   -0.209290
    15  H    0.120933
    16  H    0.111895
    17  H    0.113115
 Sum of Mulliken charges =   0.00000
 Mulliken charges with hydrogens summed into heavy atoms:
               1
     1  C    0.058003
     2  C   -0.028890
     6  C   -0.022021
     8  C    0.000128
    10  C   -0.009641
    12  C   -0.013300
    14  C    0.015721
 Charge=              0.0000 electrons
 Dipole moment (field-independent basis, Debye):
    X=              0.3826    Y=              0.0340    Z=             -0.0001  Tot=              0.3841
 N-N= 1.556854314715D+02 E-N=-2.616368585995D+02  KE=-2.391028759930D+01
 B after Tr=    -0.020854    0.010860    0.005415
         Rot=    0.999908   -0.000191    0.004843   -0.012661 Ang=  -1.55 deg.
 Final structure in terms of initial Z-matrix:
 C
 C,1,B1
 H,1,B2,2,A2
 H,1,B3,2,A3,3,D3,0
 H,1,B4,2,A4,3,D4,0
 C,2,B5,1,A5,3,D5,0
 H,2,B6,1,A6,3,D6,0
 C,6,B7,2,A7,1,D7,0
 H,6,B8,2,A8,1,D8,0
 C,8,B9,6,A9,2,D9,0
 H,8,B10,6,A10,2,D10,0
 C,10,B11,8,A11,6,D11,0
 H,10,B12,8,A12,6,D12,0
 C,12,B13,10,A13,8,D13,0
 H,12,B14,10,A14,8,D14,0
 H,14,B15,12,A15,10,D15,0
 H,14,B16,12,A16,10,D16,0
      Variables:
 B1=1.47439826
 B2=1.11947603
 A2=110.02135439
 B3=1.11946903
 A3=110.02110674
 D3=-118.88672648
 B4=1.11767194
 A4=112.02385176
 D4=120.55467066
 B5=1.34127767
 A5=123.75556353
 D5=-120.55184239
 B6=1.10309564
 A6=115.29815697
 D6=59.44980677
 B7=1.44658234
 A7=123.04703574
 D7=-179.99835569
 B8=1.10407268
 A8=120.65573678
 D8=-0.00043131
 B9=1.34506392
 A9=122.96896997
 D9=-179.96381688
 B10=1.10405794
 A10=116.39347901
 D10=0.03750443
 B11=1.4480374
 A11=122.96844532
 D11=-179.99699741
 B12=1.10382164
 A12=120.7157916
 D12=0.00103964
 B13=1.33565291
 A13=123.38967051
 D13=179.91702603
 B14=1.10445385
 A14=116.03768975
 D14=-0.08289803
 B15=1.09775161
 A15=122.80617572
 D15=0.00191384
 B16=1.0973826
 A16=122.06135951
 D16=-179.9990338
 1\1\GINC-C0704A-S1\FOpt\RAM1\ZDO\C7H10\LE.CHEN\23-Sep-2021\0\\#n AM1 O
 pt\\Title\\0,1\C,-0.0151637984,0.0260983725,0.0108846883\C,0.035246855
 4,-0.0141659763,1.4838706907\H,0.9035804214,0.524048517,-0.3905892116\
 H,-0.9043970593,0.6167481671,-0.3261730848\H,-0.0834359948,-0.99682620
 63,-0.4342611162\C,0.00272592,-1.1478053151,2.1999922162\H,0.103207829
 ,0.9685922155,1.9802451755\C,0.0530774321,-1.1694470951,3.6455359964\H
 ,-0.0653788091,-2.1288928031,1.6981899057\C,0.0210709866,-2.3072966614
 ,4.3621048355\H,0.1205162027,-0.189184878,4.1490058834\C,0.071410277,-
 2.3289437582,5.8091050665\H,-0.0463459957,-3.2880372133,3.8600837819\C
 ,0.0385751954,-3.4535061033,6.5290009495\H,0.1402195616,-1.3452800154,
 6.3065879599\H,-0.0293820391,-4.4497864595,6.0730778716\H,0.0780303789
 ,-3.4445042471,7.6256370927\\Version=AS64L-G09RevD.01\State=1-A\HF=0.0
 519813\RMSD=2.836e-09\RMSF=5.084e-06\Dipole=-0.0003557,0.0822144,-0.12
 6806\PG=C01 [X(C7H10)]\\@


 WHEN HAVING A MEETING OF THE MINDS,
 MAKE SURE YOU HAVE THE EQUIPMENT FOR IT.
 Job cpu time:       0 days  0 hours  0 minutes  5.4 seconds.
 File lengths (MBytes):  RWF=      5 Int=      0 D2E=      0 Chk=      2 Scr=      1
 Normal termination of Gaussian 09 at Thu Sep 23 21:49:21 2021.
