 Entering Gaussian System, Link 0=g09
 Initial command:
 /apps/gaussian/g09/amd-sse4a/l1.exe "/blue/chm6586/le.chen/hw2/butane/Gau-73127.inp" -scrdir="/blue/chm6586/le.chen/hw2/butane/"
 Entering Link 1 = /apps/gaussian/g09/amd-sse4a/l1.exe PID=     73128.
  
 Copyright (c) 1988,1990,1992,1993,1995,1998,2003,2009,2013,
            Gaussian, Inc.  All Rights Reserved.
  
 This is part of the Gaussian(R) 09 program.  It is based on
 the Gaussian(R) 03 system (copyright 2003, Gaussian, Inc.),
 the Gaussian(R) 98 system (copyright 1998, Gaussian, Inc.),
 the Gaussian(R) 94 system (copyright 1995, Gaussian, Inc.),
 the Gaussian 92(TM) system (copyright 1992, Gaussian, Inc.),
 the Gaussian 90(TM) system (copyright 1990, Gaussian, Inc.),
 the Gaussian 88(TM) system (copyright 1988, Gaussian, Inc.),
 the Gaussian 86(TM) system (copyright 1986, Carnegie Mellon
 University), and the Gaussian 82(TM) system (copyright 1983,
 Carnegie Mellon University). Gaussian is a federally registered
 trademark of Gaussian, Inc.
  
 This software contains proprietary and confidential information,
 including trade secrets, belonging to Gaussian, Inc.
  
 This software is provided under written license and may be
 used, copied, transmitted, or stored only in accord with that
 written license.
  
 The following legend is applicable only to US Government
 contracts under FAR:
  
                    RESTRICTED RIGHTS LEGEND
  
 Use, reproduction and disclosure by the US Government is
 subject to restrictions as set forth in subparagraphs (a)
 and (c) of the Commercial Computer Software - Restricted
 Rights clause in FAR 52.227-19.
  
 Gaussian, Inc.
 340 Quinnipiac St., Bldg. 40, Wallingford CT 06492
  
  
 ---------------------------------------------------------------
 Warning -- This program may not be used in any manner that
 competes with the business of Gaussian, Inc. or will provide
 assistance to any competitor of Gaussian, Inc.  The licensee
 of this program is prohibited from giving any competitor of
 Gaussian, Inc. access to this program.  By using this program,
 the user acknowledges that Gaussian, Inc. is engaged in the
 business of creating and licensing software in the field of
 computational chemistry and represents and warrants to the
 licensee that it is not a competitor of Gaussian, Inc. and that
 it will not use this program in any manner prohibited above.
 ---------------------------------------------------------------
  

 Cite this work as:
 Gaussian 09, Revision D.01,
 M. J. Frisch, G. W. Trucks, H. B. Schlegel, G. E. Scuseria, 
 M. A. Robb, J. R. Cheeseman, G. Scalmani, V. Barone, B. Mennucci, 
 G. A. Petersson, H. Nakatsuji, M. Caricato, X. Li, H. P. Hratchian, 
 A. F. Izmaylov, J. Bloino, G. Zheng, J. L. Sonnenberg, M. Hada, 
 M. Ehara, K. Toyota, R. Fukuda, J. Hasegawa, M. Ishida, T. Nakajima, 
 Y. Honda, O. Kitao, H. Nakai, T. Vreven, J. A. Montgomery, Jr., 
 J. E. Peralta, F. Ogliaro, M. Bearpark, J. J. Heyd, E. Brothers, 
 K. N. Kudin, V. N. Staroverov, T. Keith, R. Kobayashi, J. Normand, 
 K. Raghavachari, A. Rendell, J. C. Burant, S. S. Iyengar, J. Tomasi, 
 M. Cossi, N. Rega, J. M. Millam, M. Klene, J. E. Knox, J. B. Cross, 
 V. Bakken, C. Adamo, J. Jaramillo, R. Gomperts, R. E. Stratmann, 
 O. Yazyev, A. J. Austin, R. Cammi, C. Pomelli, J. W. Ochterski, 
 R. L. Martin, K. Morokuma, V. G. Zakrzewski, G. A. Voth, 
 P. Salvador, J. J. Dannenberg, S. Dapprich, A. D. Daniels, 
 O. Farkas, J. B. Foresman, J. V. Ortiz, J. Cioslowski, 
 and D. J. Fox, Gaussian, Inc., Wallingford CT, 2013.
 
 ******************************************
 Gaussian 09:  AS64L-G09RevD.01 24-Apr-2013
                21-Sep-2021 
 ******************************************
 -------------------------------
 #n HF/cc-pvdz Opt=(MaxCyc=2000)
 -------------------------------
 1/6=2000,18=20,19=15,38=1/1,3;
 2/9=110,12=2,17=6,18=5,40=1/2;
 3/5=16,11=9,16=1,25=1,30=1,71=1/1,2,3;
 4//1;
 5/5=2,38=5/2;
 6/7=2,8=2,9=2,10=2,28=1/1;
 7//1,2,3,16;
 1/6=2000,18=20,19=15/3(2);
 2/9=110/2;
 99//99;
 2/9=110/2;
 3/5=16,11=9,16=1,25=1,30=1,71=1/1,2,3;
 4/5=5,16=3,69=1/1;
 5/5=2,38=5/2;
 7//1,2,3,16;
 1/6=2000,18=20,19=15/3(-5);
 2/9=110/2;
 6/7=2,8=2,9=2,10=2,19=2,28=1/1;
 99/9=1/99;
 -----
 Title
 -----
 Symbolic Z-matrix:
 Charge =  0 Multiplicity = 1
 C
 C                    1    B1
 H                    1    B2       2    A2
 H                    1    B3       2    A3       3    D3       0
 H                    1    B4       2    A4       3    D4       0
 C                    2    B5       1    A5       3    D5       0
 H                    2    B6       1    A6       3    D6       0
 H                    2    B7       1    A7       3    D7       0
 C                    6    B8       2    A8       1    D8       0
 H                    6    B9       2    A9       1    D9       0
 H                    6    B10      2    A10      1    D10      0
 H                    9    B11      6    A11      2    D11      0
 H                    9    B12      6    A12      2    D12      0
 H                    9    B13      6    A13      2    D13      0
       Variables:
  B1                    1.52092                  
  B2                    1.09456                  
  A2                  111.04002                  
  B3                    1.09479                  
  A3                  110.05449                  
  D3                  240.45205                  
  B4                    1.0939                   
  A4                  111.51219                  
  D4                  121.09802                  
  B5                    1.52895                  
  A5                  113.44772                  
  D5                  304.51024                  
  B6                    1.09622                  
  A6                  109.41585                  
  D6                  181.38665                  
  B7                    1.09654                  
  A7                  108.53713                  
  D7                   65.18872                  
  B8                    1.52095                  
  A8                  113.44739                  
  D8                  294.48168                  
  B9                    1.09653                  
  A9                  108.50212                  
  D9                  173.785                    
  B10                   1.09622                  
  A10                 109.91094                  
  D10                  57.33122                  
  B11                   1.09456                  
  A11                 111.03978                  
  D11                 304.51834                  
  B12                   1.09477                  
  A12                 110.05516                  
  D12                 184.9684                   
  B13                   1.09391                  
  A13                 111.51079                  
  d13                  65.61453                  
 

 GradGradGradGradGradGradGradGradGradGradGradGradGradGradGradGradGradGrad
 Berny optimization.
 Initialization pass.
                           ----------------------------
                           !    Initial Parameters    !
                           ! (Angstroms and Degrees)  !
 --------------------------                            --------------------------
 ! Name  Definition              Value          Derivative Info.                !
 --------------------------------------------------------------------------------
 ! R1    R(1,2)                  1.5209         estimate D2E/DX2                !
 ! R2    R(1,3)                  1.0946         estimate D2E/DX2                !
 ! R3    R(1,4)                  1.0948         estimate D2E/DX2                !
 ! R4    R(1,5)                  1.0939         estimate D2E/DX2                !
 ! R5    R(2,6)                  1.529          estimate D2E/DX2                !
 ! R6    R(2,7)                  1.0962         estimate D2E/DX2                !
 ! R7    R(2,8)                  1.0965         estimate D2E/DX2                !
 ! R8    R(6,9)                  1.5209         estimate D2E/DX2                !
 ! R9    R(6,10)                 1.0965         estimate D2E/DX2                !
 ! R10   R(6,11)                 1.0962         estimate D2E/DX2                !
 ! R11   R(9,12)                 1.0946         estimate D2E/DX2                !
 ! R12   R(9,13)                 1.0948         estimate D2E/DX2                !
 ! R13   R(9,14)                 1.0939         estimate D2E/DX2                !
 ! A1    A(2,1,3)              111.04           estimate D2E/DX2                !
 ! A2    A(2,1,4)              110.0545         estimate D2E/DX2                !
 ! A3    A(2,1,5)              111.5122         estimate D2E/DX2                !
 ! A4    A(3,1,4)              108.0142         estimate D2E/DX2                !
 ! A5    A(3,1,5)              108.4716         estimate D2E/DX2                !
 ! A6    A(4,1,5)              107.6173         estimate D2E/DX2                !
 ! A7    A(1,2,6)              113.4477         estimate D2E/DX2                !
 ! A8    A(1,2,7)              109.4159         estimate D2E/DX2                !
 ! A9    A(1,2,8)              108.5371         estimate D2E/DX2                !
 ! A10   A(6,2,7)              109.9097         estimate D2E/DX2                !
 ! A11   A(6,2,8)              108.4996         estimate D2E/DX2                !
 ! A12   A(7,2,8)              106.803          estimate D2E/DX2                !
 ! A13   A(2,6,9)              113.4474         estimate D2E/DX2                !
 ! A14   A(2,6,10)             108.5021         estimate D2E/DX2                !
 ! A15   A(2,6,11)             109.9109         estimate D2E/DX2                !
 ! A16   A(9,6,10)             108.5336         estimate D2E/DX2                !
 ! A17   A(9,6,11)             109.4136         estimate D2E/DX2                !
 ! A18   A(10,6,11)            106.8055         estimate D2E/DX2                !
 ! A19   A(6,9,12)             111.0398         estimate D2E/DX2                !
 ! A20   A(6,9,13)             110.0552         estimate D2E/DX2                !
 ! A21   A(6,9,14)             111.5108         estimate D2E/DX2                !
 ! A22   A(12,9,13)            108.0156         estimate D2E/DX2                !
 ! A23   A(12,9,14)            108.4711         estimate D2E/DX2                !
 ! A24   A(13,9,14)            107.6176         estimate D2E/DX2                !
 ! D1    D(3,1,2,6)            -55.4898         estimate D2E/DX2                !
 ! D2    D(3,1,2,7)           -178.6134         estimate D2E/DX2                !
 ! D3    D(3,1,2,8)             65.1887         estimate D2E/DX2                !
 ! D4    D(4,1,2,6)           -175.0377         estimate D2E/DX2                !
 ! D5    D(4,1,2,7)             61.8387         estimate D2E/DX2                !
 ! D6    D(4,1,2,8)            -54.3592         estimate D2E/DX2                !
 ! D7    D(5,1,2,6)             65.6083         estimate D2E/DX2                !
 ! D8    D(5,1,2,7)            -57.5153         estimate D2E/DX2                !
 ! D9    D(5,1,2,8)           -173.7133         estimate D2E/DX2                !
 ! D10   D(1,2,6,9)            -65.5183         estimate D2E/DX2                !
 ! D11   D(1,2,6,10)           173.785          estimate D2E/DX2                !
 ! D12   D(1,2,6,11)            57.3312         estimate D2E/DX2                !
 ! D13   D(7,2,6,9)             57.3334         estimate D2E/DX2                !
 ! D14   D(7,2,6,10)           -63.3633         estimate D2E/DX2                !
 ! D15   D(7,2,6,11)          -179.817          estimate D2E/DX2                !
 ! D16   D(8,2,6,9)            173.782          estimate D2E/DX2                !
 ! D17   D(8,2,6,10)            53.0854         estimate D2E/DX2                !
 ! D18   D(8,2,6,11)           -63.3684         estimate D2E/DX2                !
 ! D19   D(2,6,9,12)           -55.4817         estimate D2E/DX2                !
 ! D20   D(2,6,9,13)          -175.0316         estimate D2E/DX2                !
 ! D21   D(2,6,9,14)            65.6145         estimate D2E/DX2                !
 ! D22   D(10,6,9,12)           65.1973         estimate D2E/DX2                !
 ! D23   D(10,6,9,13)          -54.3527         estimate D2E/DX2                !
 ! D24   D(10,6,9,14)         -173.7065         estimate D2E/DX2                !
 ! D25   D(11,6,9,12)         -178.605          estimate D2E/DX2                !
 ! D26   D(11,6,9,13)           61.8451         estimate D2E/DX2                !
 ! D27   D(11,6,9,14)          -57.5088         estimate D2E/DX2                !
 --------------------------------------------------------------------------------
 Trust Radius=3.00D-01 FncErr=1.00D-07 GrdErr=1.00D-07
 Number of steps in this run=    100 maximum allowed number of steps=    100.
 GradGradGradGradGradGradGradGradGradGradGradGradGradGradGradGradGradGrad

                          Input orientation:                          
 ---------------------------------------------------------------------
 Center     Atomic      Atomic             Coordinates (Angstroms)
 Number     Number       Type             X           Y           Z
 ---------------------------------------------------------------------
      1          6           0        0.000000    0.000000    0.000000
      2          6           0        0.000000    0.000000    1.520920
      3          1           0        1.021586    0.000000   -0.392969
      4          1           0       -0.507162    0.894658   -0.375418
      5          1           0       -0.525645   -0.871440   -0.401132
      6          6           0        0.794702   -1.155855    2.129308
      7          1           0       -1.033576   -0.025019    1.885328
      8          1           0        0.436269    0.943684    1.869531
      9          6           0        0.193186   -2.522441    1.839632
     10          1           0        0.835286   -1.016184    3.216148
     11          1           0        1.829126   -1.128939    1.767452
     12          1           0       -0.849635   -2.570534    2.168679
     13          1           0        0.752207   -3.299067    2.371487
     14          1           0        0.231120   -2.759325    0.772352
 ---------------------------------------------------------------------
                    Distance matrix (angstroms):
                    1          2          3          4          5
     1  C    0.000000
     2  C    1.520920   0.000000
     3  H    1.094560   2.169472   0.000000
     4  H    1.094790   2.157250   1.771381   0.000000
     5  H    1.093900   2.174855   1.775781   1.766382   0.000000
     6  C    2.549805   1.528950   2.783767   3.488998   2.868333
     7  H    2.150201   1.096220   3.068379   2.496776   2.490446
     8  H    2.139163   1.096540   2.520326   2.435624   3.062003
     9  C    3.127983   2.549825   3.468928   4.132009   2.874639
    10  H    3.474758   2.145724   3.754073   4.284021   3.867532
    11  H    2.782821   2.163558   2.567887   3.760995   3.211544
    12  H    3.468818   2.783724   4.083033   4.312456   3.097713
    13  H    4.132022   3.489000   4.312612   5.169026   3.900474
    14  H    2.874686   2.868387   3.097851   3.900517   2.348163
                    6          7          8          9         10
     6  C    0.000000
     7  H    2.163543   0.000000
     8  H    2.145699   1.760420   0.000000
     9  C    1.520950   2.782831   3.474767   0.000000
    10  H    1.096530   2.499227   2.411156   2.139136   0.000000
    11  H    1.096220   3.070440   2.499248   2.150199   1.760441
    12  H    2.169495   2.567834   3.754034   1.094560   2.520348
    13  H    2.157269   3.760952   4.284007   1.094770   2.435551
    14  H    2.174872   3.211635   3.867579   1.093910   3.061976
                   11         12         13         14
    11  H    0.000000
    12  H    3.068378   0.000000
    13  H    2.496811   1.771380   0.000000
    14  H    2.490383   1.775783   1.766376   0.000000
 Stoichiometry    C4H10
 Framework group  C1[X(C4H10)]
 Deg. of freedom    36
 Full point group                 C1      NOp   1
 Largest Abelian subgroup         C1      NOp   1
 Largest concise Abelian subgroup C1      NOp   1
                         Standard orientation:                         
 ---------------------------------------------------------------------
 Center     Atomic      Atomic             Coordinates (Angstroms)
 Number     Number       Type             X           Y           Z
 ---------------------------------------------------------------------
      1          6           0        1.558719   -0.554567    0.128216
      2          6           0        0.697503    0.618845   -0.312928
      3          1           0        1.637568   -0.595907    1.219150
      4          1           0        2.569218   -0.453240   -0.280672
      5          1           0        1.152042   -1.506211   -0.226190
      6          6           0       -0.697484    0.618862    0.312932
      7          1           0        0.616193    0.620508   -1.406127
      8          1           0        1.205162    1.549129   -0.031406
      9          6           0       -1.558735   -0.554561   -0.128218
     10          1           0       -1.205177    1.549108    0.031387
     11          1           0       -0.616198    0.620491    1.406133
     12          1           0       -1.637461   -0.595985   -1.219157
     13          1           0       -2.569249   -0.453172    0.280564
     14          1           0       -1.152111   -1.506197    0.226302
 ---------------------------------------------------------------------
 Rotational constants (GHZ):     13.3459444      4.8105992      4.1106375
 Standard basis: CC-pVDZ (5D, 7F)
 There are   110 symmetry adapted cartesian basis functions of A   symmetry.
 There are   106 symmetry adapted basis functions of A   symmetry.
   106 basis functions,   202 primitive gaussians,   110 cartesian basis functions
    17 alpha electrons       17 beta electrons
       nuclear repulsion energy       132.8862853939 Hartrees.
 NAtoms=   14 NActive=   14 NUniq=   14 SFac= 1.00D+00 NAtFMM=   60 NAOKFM=F Big=F
 Integral buffers will be    131072 words long.
 Raffenetti 1 integral format.
 Two-electron integral symmetry is turned on.
 One-electron integrals computed using PRISM.
 NBasis=   106 RedAO= T EigKep=  4.81D-03  NBF=   106
 NBsUse=   106 1.00D-06 EigRej= -1.00D+00 NBFU=   106
 ExpMin= 1.22D-01 ExpMax= 6.67D+03 ExpMxC= 2.28D+02 IAcc=1 IRadAn=         1 AccDes= 0.00D+00
 Harris functional with IExCor=  205 and IRadAn=       1 diagonalized for initial guess.
 HarFok:  IExCor=  205 AccDes= 0.00D+00 IRadAn=         1 IDoV= 1 UseB2=F ITyADJ=14
 ICtDFT=  3500011 ScaDFX=  1.000000  1.000000  1.000000  1.000000
 FoFCou: FMM=F IPFlag=           0 FMFlag=      100000 FMFlg1=           0
         NFxFlg=           0 DoJE=T BraDBF=F KetDBF=T FulRan=T
         wScrn=  0.000000 ICntrl=     500 IOpCl=  0 I1Cent=   200000004 NGrid=           0
         NMat0=    1 NMatS0=      1 NMatT0=    0 NMatD0=    1 NMtDS0=    0 NMtDT0=    0
 Petite list used in FoFCou.
 Keep R1 ints in memory in canonical form, NReq=17075632.
 Requested convergence on RMS density matrix=1.00D-08 within 128 cycles.
 Requested convergence on MAX density matrix=1.00D-06.
 Requested convergence on             energy=1.00D-06.
 No special actions if energy rises.
 SCF Done:  E(RHF) =  -157.307927746     A.U. after   10 cycles
            NFock= 10  Conv=0.87D-08     -V/T= 2.0011

 **********************************************************************

            Population analysis using the SCF density.

 **********************************************************************

 Orbital symmetries:
       Occupied  (A) (A) (A) (A) (A) (A) (A) (A) (A) (A) (A) (A)
                 (A) (A) (A) (A) (A)
       Virtual   (A) (A) (A) (A) (A) (A) (A) (A) (A) (A) (A) (A)
                 (A) (A) (A) (A) (A) (A) (A) (A) (A) (A) (A) (A)
                 (A) (A) (A) (A) (A) (A) (A) (A) (A) (A) (A) (A)
                 (A) (A) (A) (A) (A) (A) (A) (A) (A) (A) (A) (A)
                 (A) (A) (A) (A) (A) (A) (A) (A) (A) (A) (A) (A)
                 (A) (A) (A) (A) (A) (A) (A) (A) (A) (A) (A) (A)
                 (A) (A) (A) (A) (A) (A) (A) (A) (A) (A) (A) (A)
                 (A) (A) (A) (A) (A)
 The electronic state is 1-A.
 Alpha  occ. eigenvalues --  -11.21915 -11.21856 -11.21541 -11.21541  -1.07234
 Alpha  occ. eigenvalues --   -0.97679  -0.87066  -0.77409  -0.62350  -0.61887
 Alpha  occ. eigenvalues --   -0.57417  -0.53045  -0.52969  -0.50280  -0.46293
 Alpha  occ. eigenvalues --   -0.45539  -0.45320
 Alpha virt. eigenvalues --    0.18119   0.21912   0.22046   0.22693   0.25880
 Alpha virt. eigenvalues --    0.27407   0.28459   0.28713   0.29167   0.31399
 Alpha virt. eigenvalues --    0.38677   0.40061   0.44145   0.58082   0.59164
 Alpha virt. eigenvalues --    0.61475   0.61886   0.62791   0.66467   0.72236
 Alpha virt. eigenvalues --    0.83364   0.85044   0.85299   0.88037   0.88756
 Alpha virt. eigenvalues --    0.89346   0.89921   0.91046   0.91054   0.91818
 Alpha virt. eigenvalues --    0.92416   0.93938   0.95687   0.97640   1.02047
 Alpha virt. eigenvalues --    1.12908   1.13509   1.18169   1.34963   1.37384
 Alpha virt. eigenvalues --    1.42769   1.42861   1.51700   1.58786   1.63288
 Alpha virt. eigenvalues --    1.67010   1.69329   1.70482   1.73683   1.86249
 Alpha virt. eigenvalues --    1.86342   1.88576   1.91444   1.91483   1.93830
 Alpha virt. eigenvalues --    1.94805   1.96089   1.97064   1.97148   1.99222
 Alpha virt. eigenvalues --    1.99335   2.00998   2.01679   2.06163   2.09465
 Alpha virt. eigenvalues --    2.14957   2.15101   2.28309   2.29168   2.32880
 Alpha virt. eigenvalues --    2.33715   2.38378   2.43034   2.50388   2.54277
 Alpha virt. eigenvalues --    2.57044   2.58926   2.62079   2.62221   2.76524
 Alpha virt. eigenvalues --    2.77321   2.80531   2.83677   2.84819   2.87817
 Alpha virt. eigenvalues --    2.96971   2.98074   3.05183   3.09183
          Condensed to atoms (all electrons):
               1          2          3          4          5          6
     1  C    4.533925   0.419049   0.408412   0.408899   0.410079  -0.066494
     2  C    0.419049   4.645223  -0.032892  -0.023749  -0.028581   0.425961
     3  H    0.408412  -0.032892   0.648802  -0.025435  -0.027501  -0.004434
     4  H    0.408899  -0.023749  -0.025435   0.643070  -0.025805   0.006128
     5  H    0.410079  -0.028581  -0.027501  -0.025805   0.644958  -0.004606
     6  C   -0.066494   0.425961  -0.004434   0.006128  -0.004606   4.645232
     7  H   -0.032470   0.401763   0.007549  -0.004277  -0.006897  -0.030889
     8  H   -0.030567   0.404074  -0.005448  -0.006952   0.007589  -0.027389
     9  C   -0.005589  -0.066492  -0.000621  -0.000119   0.001349   0.419046
    10  H    0.006846  -0.027385   0.000057  -0.000247  -0.000161   0.404073
    11  H   -0.006460  -0.030889   0.004048  -0.000004  -0.000346   0.401762
    12  H   -0.000621  -0.004434   0.000041  -0.000048   0.000408  -0.032893
    13  H   -0.000119   0.006127  -0.000048   0.000014  -0.000038  -0.023747
    14  H    0.001349  -0.004605   0.000408  -0.000038  -0.000977  -0.028582
               7          8          9         10         11         12
     1  C   -0.032470  -0.030567  -0.005589   0.006846  -0.006460  -0.000621
     2  C    0.401763   0.404074  -0.066492  -0.027385  -0.030889  -0.004434
     3  H    0.007549  -0.005448  -0.000621   0.000057   0.004048   0.000041
     4  H   -0.004277  -0.006952  -0.000119  -0.000247  -0.000004  -0.000048
     5  H   -0.006897   0.007589   0.001349  -0.000161  -0.000346   0.000408
     6  C   -0.030889  -0.027389   0.419046   0.404073   0.401762  -0.032893
     7  H    0.674518  -0.031341  -0.006462  -0.004923   0.007695   0.004049
     8  H   -0.031341   0.673977   0.006846  -0.006737  -0.004923   0.000057
     9  C   -0.006462   0.006846   4.533939  -0.030571  -0.032471   0.408412
    10  H   -0.004923  -0.006737  -0.030571   0.673974  -0.031338  -0.005446
    11  H    0.007695  -0.004923  -0.032471  -0.031338   0.674514   0.007548
    12  H    0.004049   0.000057   0.408412  -0.005446   0.007548   0.648801
    13  H   -0.000004  -0.000247   0.408900  -0.006954  -0.004275  -0.025434
    14  H   -0.000346  -0.000162   0.410076   0.007589  -0.006898  -0.027500
              13         14
     1  C   -0.000119   0.001349
     2  C    0.006127  -0.004605
     3  H   -0.000048   0.000408
     4  H    0.000014  -0.000038
     5  H   -0.000038  -0.000977
     6  C   -0.023747  -0.028582
     7  H   -0.000004  -0.000346
     8  H   -0.000247  -0.000162
     9  C    0.408900   0.410076
    10  H   -0.006954   0.007589
    11  H   -0.004275  -0.006898
    12  H   -0.025434  -0.027500
    13  H    0.643066  -0.025805
    14  H   -0.025805   0.644964
 Mulliken charges:
               1
     1  C   -0.046238
     2  C   -0.083169
     3  H    0.027063
     4  H    0.028563
     5  H    0.030529
     6  C   -0.083169
     7  H    0.022034
     8  H    0.021222
     9  C   -0.046245
    10  H    0.021223
    11  H    0.022036
    12  H    0.027061
    13  H    0.028562
    14  H    0.030527
 Sum of Mulliken charges =   0.00000
 Mulliken charges with hydrogens summed into heavy atoms:
               1
     1  C    0.039917
     2  C   -0.039912
     6  C   -0.039910
     9  C    0.039905
 Electronic spatial extent (au):  <R**2>=            378.2809
 Charge=              0.0000 electrons
 Dipole moment (field-independent basis, Debye):
    X=              0.0000    Y=              0.0708    Z=              0.0000  Tot=              0.0708
 Quadrupole moment (field-independent basis, Debye-Ang):
   XX=            -29.0662   YY=            -28.9574   ZZ=            -28.3225
   XY=             -0.0001   XZ=             -0.0503   YZ=             -0.0001
 Traceless Quadrupole moment (field-independent basis, Debye-Ang):
   XX=             -0.2842   YY=             -0.1754   ZZ=              0.4596
   XY=             -0.0001   XZ=             -0.0503   YZ=             -0.0001
 Octapole moment (field-independent basis, Debye-Ang**2):
  XXX=             -0.0004  YYY=              0.2243  ZZZ=              0.0000  XYY=              0.0000
  XXY=              1.6262  XXZ=              0.0001  XZZ=              0.0001  YZZ=             -0.0875
  YYZ=             -0.0001  XYZ=              0.5355
 Hexadecapole moment (field-independent basis, Debye-Ang**3):
 XXXX=           -328.3931 YYYY=           -125.1708 ZZZZ=            -67.3646 XXXY=             -0.0007
 XXXZ=             -3.9378 YYYX=             -0.0002 YYYZ=             -0.0004 ZZZX=              1.3334
 ZZZY=              0.0000 XXYY=            -78.8804 XXZZ=            -67.1219 YYZZ=            -34.0546
 XXYZ=              0.0000 YYXZ=              0.2974 ZZXY=              0.0000
 N-N= 1.328862853939D+02 E-N=-6.308899319086D+02  KE= 1.571283414859D+02
 Calling FoFJK, ICntrl=      2127 FMM=F ISym2X=0 I1Cent= 0 IOpClX= 0 NMat=1 NMatS=1 NMatT=0.
 ***** Axes restored to original set *****
 -------------------------------------------------------------------
 Center     Atomic                   Forces (Hartrees/Bohr)
 Number     Number              X              Y              Z
 -------------------------------------------------------------------
      1        6          -0.003927399    0.002651622   -0.003229928
      2        6           0.005612712    0.002395179    0.001047650
      3        1          -0.001019404   -0.000271018   -0.000510861
      4        1           0.000985377   -0.001670593   -0.001430748
      5        1           0.001488309    0.001593766   -0.001045636
      6        6          -0.003754647    0.001817078    0.004562099
      7        1           0.001186078   -0.000019839    0.000960783
      8        1          -0.001775628   -0.000790919    0.000429913
      9        6           0.002922663   -0.004904606    0.000196591
     10        1           0.001479342    0.000119608   -0.001326223
     11        1          -0.000655560    0.001227366    0.000637645
     12        1           0.000603340   -0.000677090   -0.000741935
     13        1          -0.001913528   -0.000462048   -0.001377016
     14        1          -0.001231656   -0.001008505    0.001827664
 -------------------------------------------------------------------
 Cartesian Forces:  Max     0.005612712 RMS     0.002074334

 GradGradGradGradGradGradGradGradGradGradGradGradGradGradGradGradGradGrad
 Berny optimization.
 FormGI is forming the generalized inverse of G from B-inverse, IUseBI=4.
 Internal  Forces:  Max     0.006217172 RMS     0.001902345
 Search for a local minimum.
 Step number   1 out of a maximum of  100
 All quantities printed in internal units (Hartrees-Bohrs-Radians)
 Mixed Optimization -- RFO/linear search
 Second derivative matrix not updated -- first step.
 ITU=  0
     Eigenvalues ---    0.00383   0.00489   0.00489   0.03521   0.03522
     Eigenvalues ---    0.04883   0.04883   0.05541   0.05541   0.05715
     Eigenvalues ---    0.05716   0.08490   0.08490   0.12312   0.12313
     Eigenvalues ---    0.16000   0.16000   0.16000   0.16000   0.16000
     Eigenvalues ---    0.16000   0.21937   0.21937   0.29521   0.30275
     Eigenvalues ---    0.30278   0.34068   0.34069   0.34104   0.34104
     Eigenvalues ---    0.34265   0.34267   0.34291   0.34291   0.34365
     Eigenvalues ---    0.34366
 RFO step:  Lambda=-1.21748547D-03 EMin= 3.82994438D-03
 Linear search not attempted -- first point.
 Iteration  1 RMS(Cart)=  0.03253044 RMS(Int)=  0.00024551
 Iteration  2 RMS(Cart)=  0.00037007 RMS(Int)=  0.00009792
 Iteration  3 RMS(Cart)=  0.00000009 RMS(Int)=  0.00009792
 Variable       Old X    -DE/DX   Delta X   Delta X   Delta X     New X
                                 (Linear)    (Quad)   (Total)
    R1        2.87412   0.00622   0.00000   0.02045   0.02045   2.89457
    R2        2.06842  -0.00077   0.00000  -0.00223  -0.00223   2.06619
    R3        2.06885  -0.00133   0.00000  -0.00387  -0.00387   2.06498
    R4        2.06717  -0.00160   0.00000  -0.00464  -0.00464   2.06253
    R5        2.88930   0.00312   0.00000   0.01052   0.01052   2.89981
    R6        2.07156  -0.00080   0.00000  -0.00233  -0.00233   2.06922
    R7        2.07216  -0.00125   0.00000  -0.00366  -0.00366   2.06850
    R8        2.87418   0.00620   0.00000   0.02041   0.02041   2.89459
    R9        2.07214  -0.00124   0.00000  -0.00364  -0.00364   2.06850
   R10        2.07156  -0.00080   0.00000  -0.00233  -0.00233   2.06922
   R11        2.06842  -0.00077   0.00000  -0.00223  -0.00223   2.06619
   R12        2.06882  -0.00132   0.00000  -0.00383  -0.00383   2.06498
   R13        2.06719  -0.00161   0.00000  -0.00466  -0.00466   2.06253
    A1        1.93801   0.00021   0.00000  -0.00065  -0.00065   1.93737
    A2        1.92081   0.00247   0.00000   0.01730   0.01720   1.93802
    A3        1.94625   0.00187   0.00000   0.01149   0.01141   1.95767
    A4        1.88520  -0.00139   0.00000  -0.00850  -0.00851   1.87670
    A5        1.89319  -0.00153   0.00000  -0.01311  -0.01310   1.88009
    A6        1.87828  -0.00184   0.00000  -0.00772  -0.00789   1.87039
    A7        1.98004   0.00543   0.00000   0.02929   0.02918   2.00922
    A8        1.90967  -0.00084   0.00000  -0.00116  -0.00099   1.90867
    A9        1.89433  -0.00132   0.00000   0.00248   0.00227   1.89660
   A10        1.91829  -0.00265   0.00000  -0.01870  -0.01875   1.89954
   A11        1.89368  -0.00113   0.00000   0.00086   0.00055   1.89422
   A12        1.86406   0.00025   0.00000  -0.01511  -0.01518   1.84888
   A13        1.98003   0.00543   0.00000   0.02930   0.02918   2.00921
   A14        1.89372  -0.00113   0.00000   0.00081   0.00050   1.89422
   A15        1.91831  -0.00265   0.00000  -0.01872  -0.01876   1.89954
   A16        1.89427  -0.00132   0.00000   0.00255   0.00233   1.89660
   A17        1.90963  -0.00084   0.00000  -0.00113  -0.00096   1.90866
   A18        1.86411   0.00025   0.00000  -0.01514  -0.01522   1.84889
   A19        1.93801   0.00021   0.00000  -0.00065  -0.00065   1.93736
   A20        1.92082   0.00247   0.00000   0.01728   0.01718   1.93801
   A21        1.94623   0.00187   0.00000   0.01152   0.01144   1.95767
   A22        1.88523  -0.00139   0.00000  -0.00851  -0.00852   1.87670
   A23        1.89318  -0.00153   0.00000  -0.01311  -0.01309   1.88009
   A24        1.87828  -0.00184   0.00000  -0.00772  -0.00789   1.87039
    D1       -0.96848  -0.00032   0.00000  -0.01069  -0.01070  -0.97918
    D2       -3.11739  -0.00007   0.00000  -0.00617  -0.00621  -3.12360
    D3        1.13776   0.00083   0.00000   0.01110   0.01117   1.14892
    D4       -3.05498  -0.00033   0.00000  -0.01090  -0.01088  -3.06587
    D5        1.07929  -0.00008   0.00000  -0.00639  -0.00639   1.07290
    D6       -0.94875   0.00082   0.00000   0.01088   0.01098  -0.93776
    D7        1.14508  -0.00085   0.00000  -0.01998  -0.02004   1.12504
    D8       -1.00383  -0.00060   0.00000  -0.01546  -0.01555  -1.01938
    D9       -3.03187   0.00030   0.00000   0.00181   0.00182  -3.03004
   D10       -1.14351   0.00013   0.00000   0.00243   0.00260  -1.14091
   D11        3.03312  -0.00091   0.00000  -0.02032  -0.02023   3.01289
   D12        1.00062   0.00091   0.00000   0.00775   0.00775   1.00837
   D13        1.00066   0.00090   0.00000   0.00772   0.00772   1.00838
   D14       -1.10590  -0.00014   0.00000  -0.01502  -0.01511  -1.12101
   D15       -3.13840   0.00168   0.00000   0.01305   0.01287  -3.12553
   D16        3.03307  -0.00091   0.00000  -0.02026  -0.02017   3.01289
   D17        0.92651  -0.00195   0.00000  -0.04301  -0.04300   0.88351
   D18       -1.10599  -0.00013   0.00000  -0.01494  -0.01503  -1.12101
   D19       -0.96834  -0.00032   0.00000  -0.01076  -0.01077  -0.97911
   D20       -3.05488  -0.00033   0.00000  -0.01095  -0.01092  -3.06580
   D21        1.14519  -0.00085   0.00000  -0.02002  -0.02009   1.12510
   D22        1.13791   0.00083   0.00000   0.01102   0.01108   1.14899
   D23       -0.94863   0.00082   0.00000   0.01083   0.01093  -0.93770
   D24       -3.03175   0.00030   0.00000   0.00176   0.00177  -3.02998
   D25       -3.11724  -0.00007   0.00000  -0.00625  -0.00628  -3.12353
   D26        1.07940  -0.00008   0.00000  -0.00643  -0.00643   1.07297
   D27       -1.00372  -0.00060   0.00000  -0.01550  -0.01559  -1.01931
         Item               Value     Threshold  Converged?
 Maximum Force            0.006217     0.000450     NO 
 RMS     Force            0.001902     0.000300     NO 
 Maximum Displacement     0.100549     0.001800     NO 
 RMS     Displacement     0.032623     0.001200     NO 
 Predicted change in Energy=-6.171503D-04
 GradGradGradGradGradGradGradGradGradGradGradGradGradGradGradGradGradGrad

                          Input orientation:                          
 ---------------------------------------------------------------------
 Center     Atomic      Atomic             Coordinates (Angstroms)
 Number     Number       Type             X           Y           Z
 ---------------------------------------------------------------------
      1          6           0       -0.004607    0.032943   -0.020995
      2          6           0        0.007504    0.003171    1.510410
      3          1           0        1.012996    0.038472   -0.420908
      4          1           0       -0.508862    0.928580   -0.392002
      5          1           0       -0.523723   -0.828189   -0.445515
      6          6           0        0.784961   -1.164099    2.133130
      7          1           0       -1.022541   -0.020358    1.881150
      8          1           0        0.436970    0.941413    1.875678
      9          6           0        0.198720   -2.553280    1.863395
     10          1           0        0.836430   -1.009688    3.215565
     11          1           0        1.819272   -1.130880    1.775235
     12          1           0       -0.841718   -2.610615    2.194573
     13          1           0        0.757301   -3.325399    2.398094
     14          1           0        0.224762   -2.812534    0.803509
 ---------------------------------------------------------------------
                    Distance matrix (angstroms):
                    1          2          3          4          5
     1  C    0.000000
     2  C    1.531742   0.000000
     3  H    1.093379   2.177671   0.000000
     4  H    1.092742   2.177656   1.763287   0.000000
     5  H    1.091443   2.190663   1.764430   1.757647   0.000000
     6  C    2.587775   1.534516   2.832187   3.525560   2.911167
     7  H    2.158051   1.094985   3.073490   2.516260   2.512922
     8  H    2.148878   1.094605   2.534051   2.457058   3.072842
     9  C    3.206371   2.587780   3.549404   4.208424   2.971351
    10  H    3.502819   2.149547   3.788634   4.310595   3.909791
    11  H    2.812020   2.153765   2.615436   3.789261   3.242372
    12  H    3.549351   2.832161   4.159131   4.396255   3.201285
    13  H    4.208439   3.525557   4.396337   5.242532   3.995396
    14  H    2.971389   2.911203   3.201366   3.995420   2.461283
                    6          7          8          9         10
     6  C    0.000000
     7  H    2.153764   0.000000
     8  H    2.149549   1.747914   0.000000
     9  C    1.531750   2.812026   3.502827   0.000000
    10  H    1.094604   2.493032   2.400346   2.148887   0.000000
    11  H    1.094985   3.052929   2.493039   2.158051   1.747917
    12  H    2.177675   2.615409   3.788620   1.093379   2.534082
    13  H    2.177656   3.789243   4.310593   1.092741   2.457038
    14  H    2.190673   3.242425   3.909820   1.091443   3.072849
                   11         12         13         14
    11  H    0.000000
    12  H    3.073488   0.000000
    13  H    2.516277   1.763292   0.000000
    14  H    2.512901   1.764430   1.757649   0.000000
 Stoichiometry    C4H10
 Framework group  C1[X(C4H10)]
 Deg. of freedom    36
 Full point group                 C1      NOp   1
 Largest Abelian subgroup         C1      NOp   1
 Largest concise Abelian subgroup C1      NOp   1
                         Standard orientation:                         
 ---------------------------------------------------------------------
 Center     Atomic      Atomic             Coordinates (Angstroms)
 Number     Number       Type             X           Y           Z
 ---------------------------------------------------------------------
      1          6           0        1.598550   -0.552017    0.121808
      2          6           0        0.703665    0.615256   -0.305848
      3          1           0        1.691070   -0.596521    1.210357
      4          1           0        2.605173   -0.445970   -0.289954
      5          1           0        1.211100   -1.514027   -0.218288
      6          6           0       -0.703661    0.615261    0.305848
      7          1           0        0.614783    0.623583   -1.397189
      8          1           0        1.199589    1.553476   -0.037592
      9          6           0       -1.598554   -0.552016   -0.121808
     10          1           0       -1.199579    1.553483    0.037589
     11          1           0       -0.614782    0.623580    1.397188
     12          1           0       -1.691016   -0.596561   -1.210360
     13          1           0       -2.605192   -0.445923    0.289903
     14          1           0       -1.211144   -1.514024    0.218345
 ---------------------------------------------------------------------
 Rotational constants (GHZ):     13.4653479      4.6351234      3.9777554
 Standard basis: CC-pVDZ (5D, 7F)
 There are   110 symmetry adapted cartesian basis functions of A   symmetry.
 There are   106 symmetry adapted basis functions of A   symmetry.
   106 basis functions,   202 primitive gaussians,   110 cartesian basis functions
    17 alpha electrons       17 beta electrons
       nuclear repulsion energy       131.9430512959 Hartrees.
 NAtoms=   14 NActive=   14 NUniq=   14 SFac= 1.00D+00 NAtFMM=   60 NAOKFM=F Big=F
 Integral buffers will be    131072 words long.
 Raffenetti 1 integral format.
 Two-electron integral symmetry is turned on.
 One-electron integrals computed using PRISM.
 NBasis=   106 RedAO= T EigKep=  5.00D-03  NBF=   106
 NBsUse=   106 1.00D-06 EigRej= -1.00D+00 NBFU=   106
 Initial guess from the checkpoint file:  "/blue/chm6586/le.chen/hw2/butane/Gau-73128.chk"
 B after Tr=     0.000000    0.000000    0.000000
         Rot=    0.999998   -0.000002   -0.001787   -0.000001 Ang=  -0.20 deg.
 ExpMin= 1.22D-01 ExpMax= 6.67D+03 ExpMxC= 2.28D+02 IAcc=1 IRadAn=         1 AccDes= 0.00D+00
 Harris functional with IExCor=  205 and IRadAn=       1 diagonalized for initial guess.
 HarFok:  IExCor=  205 AccDes= 0.00D+00 IRadAn=         1 IDoV= 1 UseB2=F ITyADJ=14
 ICtDFT=  3500011 ScaDFX=  1.000000  1.000000  1.000000  1.000000
 FoFCou: FMM=F IPFlag=           0 FMFlag=      100000 FMFlg1=           0
         NFxFlg=           0 DoJE=T BraDBF=F KetDBF=T FulRan=T
         wScrn=  0.000000 ICntrl=     500 IOpCl=  0 I1Cent=   200000004 NGrid=           0
         NMat0=    1 NMatS0=      1 NMatT0=    0 NMatD0=    1 NMtDS0=    0 NMtDT0=    0
 Petite list used in FoFCou.
 Keep R1 ints in memory in canonical form, NReq=17075352.
 Requested convergence on RMS density matrix=1.00D-08 within 128 cycles.
 Requested convergence on MAX density matrix=1.00D-06.
 Requested convergence on             energy=1.00D-06.
 No special actions if energy rises.
 SCF Done:  E(RHF) =  -157.308310479     A.U. after    9 cycles
            NFock=  9  Conv=0.25D-08     -V/T= 2.0014
 Calling FoFJK, ICntrl=      2127 FMM=F ISym2X=0 I1Cent= 0 IOpClX= 0 NMat=1 NMatS=1 NMatT=0.
 ***** Axes restored to original set *****
 -------------------------------------------------------------------
 Center     Atomic                   Forces (Hartrees/Bohr)
 Number     Number              X              Y              Z
 -------------------------------------------------------------------
      1        6           0.000412558   -0.000372790    0.001850764
      2        6          -0.000767790   -0.001127874   -0.000682341
      3        1           0.000448732   -0.000055135   -0.000152806
      4        1          -0.000040429    0.000156744    0.000801330
      5        1          -0.000059469   -0.000841216    0.000160333
      6        6           0.000058413   -0.000482798   -0.001449890
      7        1          -0.000840809    0.000388094   -0.000172145
      8        1           0.000419771   -0.000404252    0.000039884
      9        6           0.000263653    0.001910314    0.000181970
     10        1          -0.000469437    0.000290816   -0.000189379
     11        1           0.000778809   -0.000529901   -0.000015962
     12        1          -0.000466458    0.000013614    0.000099455
     13        1           0.000398166    0.000656795    0.000277168
     14        1          -0.000135711    0.000397591   -0.000748381
 -------------------------------------------------------------------
 Cartesian Forces:  Max     0.001910314 RMS     0.000652342

 GradGradGradGradGradGradGradGradGradGradGradGradGradGradGradGradGradGrad
 Berny optimization.
 Using GEDIIS/GDIIS optimizer.
 FormGI is forming the generalized inverse of G from B-inverse, IUseBI=4.
 Internal  Forces:  Max     0.002690512 RMS     0.000789936
 Search for a local minimum.
 Step number   2 out of a maximum of  100
 All quantities printed in internal units (Hartrees-Bohrs-Radians)
 Mixed Optimization -- En-DIIS/RFO-DIIS
 Update second derivatives using D2CorX and points    1    2
 DE= -3.83D-04 DEPred=-6.17D-04 R= 6.20D-01
 TightC=F SS=  1.41D+00  RLast= 1.06D-01 DXNew= 5.0454D-01 3.1802D-01
 Trust test= 6.20D-01 RLast= 1.06D-01 DXMaxT set to 3.18D-01
 ITU=  1  0
 Use linear search instead of GDIIS.
     Eigenvalues ---    0.00385   0.00486   0.00489   0.03351   0.03391
     Eigenvalues ---    0.04826   0.04938   0.05438   0.05468   0.05596
     Eigenvalues ---    0.05596   0.08770   0.08793   0.12526   0.12671
     Eigenvalues ---    0.15892   0.16000   0.16000   0.16000   0.16000
     Eigenvalues ---    0.16578   0.21940   0.23588   0.29615   0.30277
     Eigenvalues ---    0.33401   0.33914   0.34068   0.34104   0.34186
     Eigenvalues ---    0.34220   0.34266   0.34291   0.34319   0.34365
     Eigenvalues ---    0.37268
 RFO step:  Lambda=-2.34510299D-05 EMin= 3.84822115D-03
 Quartic linear search produced a step of -0.26860.
 Iteration  1 RMS(Cart)=  0.01189247 RMS(Int)=  0.00003730
 Iteration  2 RMS(Cart)=  0.00004258 RMS(Int)=  0.00002197
 Iteration  3 RMS(Cart)=  0.00000000 RMS(Int)=  0.00002197
 Variable       Old X    -DE/DX   Delta X   Delta X   Delta X     New X
                                 (Linear)    (Quad)   (Total)
    R1        2.89457  -0.00269  -0.00549  -0.00067  -0.00616   2.88841
    R2        2.06619   0.00047   0.00060   0.00037   0.00097   2.06716
    R3        2.06498  -0.00012   0.00104  -0.00137  -0.00033   2.06465
    R4        2.06253   0.00063   0.00125   0.00002   0.00126   2.06379
    R5        2.89981  -0.00225  -0.00282  -0.00258  -0.00540   2.89441
    R6        2.06922   0.00072   0.00063   0.00089   0.00151   2.07074
    R7        2.06850  -0.00017   0.00098  -0.00140  -0.00042   2.06808
    R8        2.89459  -0.00269  -0.00548  -0.00069  -0.00617   2.88842
    R9        2.06850  -0.00017   0.00098  -0.00140  -0.00042   2.06808
   R10        2.06922   0.00072   0.00063   0.00089   0.00152   2.07074
   R11        2.06619   0.00047   0.00060   0.00037   0.00097   2.06716
   R12        2.06498  -0.00012   0.00103  -0.00136  -0.00033   2.06465
   R13        2.06253   0.00063   0.00125   0.00001   0.00126   2.06379
    A1        1.93737   0.00023   0.00017   0.00088   0.00105   1.93842
    A2        1.93802  -0.00102  -0.00462   0.00021  -0.00439   1.93363
    A3        1.95767  -0.00045  -0.00307   0.00113  -0.00191   1.95575
    A4        1.87670   0.00042   0.00229  -0.00041   0.00188   1.87858
    A5        1.88009   0.00010   0.00352  -0.00326   0.00026   1.88035
    A6        1.87039   0.00079   0.00212   0.00130   0.00346   1.87385
    A7        2.00922  -0.00201  -0.00784   0.00062  -0.00719   2.00202
    A8        1.90867   0.00017   0.00027  -0.00050  -0.00027   1.90840
    A9        1.89660   0.00085  -0.00061   0.00230   0.00173   1.89832
   A10        1.89954   0.00115   0.00503   0.00070   0.00575   1.90529
   A11        1.89422   0.00018  -0.00015  -0.00161  -0.00168   1.89254
   A12        1.84888  -0.00022   0.00408  -0.00172   0.00238   1.85126
   A13        2.00921  -0.00201  -0.00784   0.00062  -0.00719   2.00202
   A14        1.89422   0.00018  -0.00013  -0.00162  -0.00168   1.89254
   A15        1.89954   0.00115   0.00504   0.00069   0.00575   1.90529
   A16        1.89660   0.00085  -0.00063   0.00231   0.00172   1.89832
   A17        1.90866   0.00017   0.00026  -0.00049  -0.00027   1.90840
   A18        1.84889  -0.00022   0.00409  -0.00173   0.00238   1.85127
   A19        1.93736   0.00023   0.00017   0.00088   0.00106   1.93842
   A20        1.93801  -0.00102  -0.00462   0.00021  -0.00439   1.93362
   A21        1.95767  -0.00045  -0.00307   0.00114  -0.00192   1.95575
   A22        1.87670   0.00042   0.00229  -0.00042   0.00188   1.87858
   A23        1.88009   0.00010   0.00352  -0.00325   0.00026   1.88035
   A24        1.87039   0.00079   0.00212   0.00130   0.00346   1.87385
    D1       -0.97918   0.00019   0.00287  -0.00781  -0.00493  -0.98411
    D2       -3.12360  -0.00002   0.00167  -0.00878  -0.00711  -3.13071
    D3        1.14892  -0.00032  -0.00300  -0.00773  -0.01075   1.13818
    D4       -3.06587   0.00017   0.00292  -0.00801  -0.00509  -3.07096
    D5        1.07290  -0.00003   0.00172  -0.00899  -0.00727   1.06563
    D6       -0.93776  -0.00033  -0.00295  -0.00793  -0.01091  -0.94867
    D7        1.12504   0.00018   0.00538  -0.01058  -0.00518   1.11986
    D8       -1.01938  -0.00003   0.00418  -0.01156  -0.00736  -1.02674
    D9       -3.03004  -0.00033  -0.00049  -0.01050  -0.01100  -3.04104
   D10       -1.14091   0.00015  -0.00070   0.00928   0.00856  -1.13235
   D11        3.01289   0.00029   0.00543   0.00709   0.01250   3.02539
   D12        1.00837  -0.00015  -0.00208   0.00962   0.00755   1.01592
   D13        1.00838  -0.00015  -0.00207   0.00961   0.00754   1.01592
   D14       -1.12101  -0.00001   0.00406   0.00741   0.01149  -1.10952
   D15       -3.12553  -0.00045  -0.00346   0.00995   0.00653  -3.11900
   D16        3.01289   0.00029   0.00542   0.00710   0.01250   3.02539
   D17        0.88351   0.00043   0.01155   0.00490   0.01644   0.89995
   D18       -1.12101  -0.00001   0.00404   0.00744   0.01149  -1.10953
   D19       -0.97911   0.00019   0.00289  -0.00785  -0.00495  -0.98406
   D20       -3.06580   0.00017   0.00293  -0.00804  -0.00511  -3.07091
   D21        1.12510   0.00018   0.00539  -0.01061  -0.00520   1.11990
   D22        1.14899  -0.00032  -0.00298  -0.00777  -0.01077   1.13822
   D23       -0.93770  -0.00033  -0.00294  -0.00797  -0.01093  -0.94863
   D24       -3.02998  -0.00033  -0.00048  -0.01053  -0.01101  -3.04100
   D25       -3.12353  -0.00002   0.00169  -0.00883  -0.00713  -3.13066
   D26        1.07297  -0.00004   0.00173  -0.00902  -0.00730   1.06567
   D27       -1.01931  -0.00003   0.00419  -0.01159  -0.00738  -1.02669
         Item               Value     Threshold  Converged?
 Maximum Force            0.002691     0.000450     NO 
 RMS     Force            0.000790     0.000300     NO 
 Maximum Displacement     0.038562     0.001800     NO 
 RMS     Displacement     0.011907     0.001200     NO 
 Predicted change in Energy=-6.807628D-05
 GradGradGradGradGradGradGradGradGradGradGradGradGradGradGradGradGradGrad

                          Input orientation:                          
 ---------------------------------------------------------------------
 Center     Atomic      Atomic             Coordinates (Angstroms)
 Number     Number       Type             X           Y           Z
 ---------------------------------------------------------------------
      1          6           0       -0.004278    0.021324   -0.014490
      2          6           0        0.008019    0.003464    1.513839
      3          1           0        1.013328    0.028220   -0.415781
      4          1           0       -0.513330    0.913074   -0.387787
      5          1           0       -0.520134   -0.846675   -0.430634
      6          6           0        0.785955   -1.160958    2.134250
      7          1           0       -1.022870   -0.014363    1.884918
      8          1           0        0.443231    0.941003    1.873395
      9          6           0        0.197541   -2.543593    1.854327
     10          1           0        0.829961   -1.009743    3.217240
     11          1           0        1.822838   -1.129516    1.781216
     12          1           0       -0.843030   -2.602616    2.186488
     13          1           0        0.758232   -3.317955    2.383184
     14          1           0        0.222002   -2.792127    0.791153
 ---------------------------------------------------------------------
                    Distance matrix (angstroms):
                    1          2          3          4          5
     1  C    0.000000
     2  C    1.528483   0.000000
     3  H    1.093894   2.175935   0.000000
     4  H    1.092567   2.171492   1.764776   0.000000
     5  H    1.092111   2.186929   1.765551   1.760284   0.000000
     6  C    2.576692   1.531657   2.822854   3.514316   2.895389
     7  H    2.155587   1.095787   3.072642   2.506981   2.511428
     8  H    2.147133   1.094381   2.529527   2.455347   3.071224
     9  C    3.179938   2.576693   3.526063   4.181023   2.935240
    10  H    3.493298   2.145635   3.782834   4.300915   3.893114
    11  H    2.808442   2.156085   2.611983   3.786083   3.234471
    12  H    3.526028   2.822834   4.139948   4.369859   3.168110
    13  H    4.181035   3.514314   4.369917   5.215051   3.957148
    14  H    2.935264   2.895409   3.168162   3.957161   2.414190
                    6          7          8          9         10
     6  C    0.000000
     7  H    2.156084   0.000000
     8  H    2.145635   1.749946   0.000000
     9  C    1.528485   2.808441   3.493299   0.000000
    10  H    1.094381   2.489748   2.400186   2.147134   0.000000
    11  H    1.095787   3.058166   2.489752   2.155586   1.749947
    12  H    2.175937   2.611961   3.782821   1.093894   2.529544
    13  H    2.171491   3.786069   4.300912   1.092567   2.455329
    14  H    2.186931   3.234502   3.893129   1.092111   3.071222
                   11         12         13         14
    11  H    0.000000
    12  H    3.072641   0.000000
    13  H    2.506994   1.764778   0.000000
    14  H    2.511410   1.765551   1.760285   0.000000
 Stoichiometry    C4H10
 Framework group  C1[X(C4H10)]
 Deg. of freedom    36
 Full point group                 C1      NOp   1
 Largest Abelian subgroup         C1      NOp   1
 Largest concise Abelian subgroup C1      NOp   1
                         Standard orientation:                         
 ---------------------------------------------------------------------
 Center     Atomic      Atomic             Coordinates (Angstroms)
 Number     Number       Type             X           Y           Z
 ---------------------------------------------------------------------
      1          6           0        1.585224   -0.554055    0.122744
      2          6           0        0.702276    0.617827   -0.305455
      3          1           0        1.678244   -0.598828    1.211756
      4          1           0        2.591175   -0.453265   -0.291508
      5          1           0        1.187436   -1.512767   -0.216877
      6          6           0       -0.702275    0.617828    0.305456
      7          1           0        0.619343    0.629522   -1.398037
      8          1           0        1.199733    1.552704   -0.029391
      9          6           0       -1.585224   -0.554056   -0.122745
     10          1           0       -1.199733    1.552704    0.029389
     11          1           0       -0.619345    0.629520    1.398037
     12          1           0       -1.678205   -0.598857   -1.211758
     13          1           0       -2.591188   -0.453238    0.291471
     14          1           0       -1.187461   -1.512763    0.216918
 ---------------------------------------------------------------------
 Rotational constants (GHZ):     13.4074477      4.6949968      4.0172812
 Standard basis: CC-pVDZ (5D, 7F)
 There are   110 symmetry adapted cartesian basis functions of A   symmetry.
 There are   106 symmetry adapted basis functions of A   symmetry.
   106 basis functions,   202 primitive gaussians,   110 cartesian basis functions
    17 alpha electrons       17 beta electrons
       nuclear repulsion energy       132.2454942488 Hartrees.
 NAtoms=   14 NActive=   14 NUniq=   14 SFac= 1.00D+00 NAtFMM=   60 NAOKFM=F Big=F
 Integral buffers will be    131072 words long.
 Raffenetti 1 integral format.
 Two-electron integral symmetry is turned on.
 One-electron integrals computed using PRISM.
 NBasis=   106 RedAO= T EigKep=  4.93D-03  NBF=   106
 NBsUse=   106 1.00D-06 EigRej= -1.00D+00 NBFU=   106
 Initial guess from the checkpoint file:  "/blue/chm6586/le.chen/hw2/butane/Gau-73128.chk"
 B after Tr=     0.000000    0.000000    0.000000
         Rot=    1.000000   -0.000001    0.000565   -0.000001 Ang=  -0.06 deg.
 ExpMin= 1.22D-01 ExpMax= 6.67D+03 ExpMxC= 2.28D+02 IAcc=1 IRadAn=         1 AccDes= 0.00D+00
 Harris functional with IExCor=  205 and IRadAn=       1 diagonalized for initial guess.
 HarFok:  IExCor=  205 AccDes= 0.00D+00 IRadAn=         1 IDoV= 1 UseB2=F ITyADJ=14
 ICtDFT=  3500011 ScaDFX=  1.000000  1.000000  1.000000  1.000000
 FoFCou: FMM=F IPFlag=           0 FMFlag=      100000 FMFlg1=           0
         NFxFlg=           0 DoJE=T BraDBF=F KetDBF=T FulRan=T
         wScrn=  0.000000 ICntrl=     500 IOpCl=  0 I1Cent=   200000004 NGrid=           0
         NMat0=    1 NMatS0=      1 NMatT0=    0 NMatD0=    1 NMtDS0=    0 NMtDT0=    0
 Petite list used in FoFCou.
 Keep R1 ints in memory in canonical form, NReq=17075464.
 Requested convergence on RMS density matrix=1.00D-08 within 128 cycles.
 Requested convergence on MAX density matrix=1.00D-06.
 Requested convergence on             energy=1.00D-06.
 No special actions if energy rises.
 SCF Done:  E(RHF) =  -157.308381877     A.U. after    7 cycles
            NFock=  7  Conv=0.95D-08     -V/T= 2.0013
 Calling FoFJK, ICntrl=      2127 FMM=F ISym2X=0 I1Cent= 0 IOpClX= 0 NMat=1 NMatS=1 NMatT=0.
 ***** Axes restored to original set *****
 -------------------------------------------------------------------
 Center     Atomic                   Forces (Hartrees/Bohr)
 Number     Number              X              Y              Z
 -------------------------------------------------------------------
      1        6          -0.000068277    0.000131953    0.000285365
      2        6           0.000064849   -0.000226860   -0.000334324
      3        1           0.000069063    0.000003295   -0.000047049
      4        1          -0.000032504    0.000020500    0.000011777
      5        1           0.000054292   -0.000041462    0.000032563
      6        6          -0.000257006   -0.000209450   -0.000242657
      7        1          -0.000055653    0.000073594    0.000011882
      8        1           0.000012072    0.000067008    0.000004140
      9        6           0.000212233    0.000194913    0.000146260
     10        1           0.000011253   -0.000013949    0.000065897
     11        1           0.000075248   -0.000029304    0.000046699
     12        1          -0.000077521   -0.000023030    0.000021613
     13        1           0.000038722   -0.000005926    0.000007517
     14        1          -0.000046769    0.000058718   -0.000009684
 -------------------------------------------------------------------
 Cartesian Forces:  Max     0.000334324 RMS     0.000119475

 GradGradGradGradGradGradGradGradGradGradGradGradGradGradGradGradGradGrad
 Berny optimization.
 Using GEDIIS/GDIIS optimizer.
 FormGI is forming the generalized inverse of G from B-inverse, IUseBI=4.
 GSVD:  received Info=                   1 from GESDD.
 Internal  Forces:  Max     0.000282346 RMS     0.000065625
 Search for a local minimum.
 Step number   3 out of a maximum of  100
 All quantities printed in internal units (Hartrees-Bohrs-Radians)
 Mixed Optimization -- En-DIIS/RFO-DIIS
 Swapping is turned off.
 Update second derivatives using D2CorX and points    1    2    3
 DE= -7.14D-05 DEPred=-6.81D-05 R= 1.05D+00
 TightC=F SS=  1.41D+00  RLast= 5.14D-02 DXNew= 5.3484D-01 1.5434D-01
 Trust test= 1.05D+00 RLast= 5.14D-02 DXMaxT set to 3.18D-01
 ITU=  1  1  0
     Eigenvalues ---    0.00388   0.00469   0.00489   0.03390   0.03397
     Eigenvalues ---    0.04837   0.04953   0.05447   0.05484   0.05616
     Eigenvalues ---    0.05617   0.08690   0.08721   0.12476   0.12699
     Eigenvalues ---    0.15885   0.15997   0.16000   0.16000   0.16000
     Eigenvalues ---    0.16420   0.21936   0.24276   0.29768   0.30277
     Eigenvalues ---    0.32992   0.34026   0.34068   0.34104   0.34137
     Eigenvalues ---    0.34218   0.34266   0.34279   0.34291   0.34365
     Eigenvalues ---    0.36109
 En-DIIS/RFO-DIIS IScMMF=        0 using points:     3    2
 RFO step:  Lambda=-6.89370087D-07.
 DidBck=F Rises=F RFO-DIIS coefs:    1.02083   -0.02083
 Iteration  1 RMS(Cart)=  0.00371035 RMS(Int)=  0.00000746
 Iteration  2 RMS(Cart)=  0.00000841 RMS(Int)=  0.00000012
 Iteration  3 RMS(Cart)=  0.00000000 RMS(Int)=  0.00000012
 Variable       Old X    -DE/DX   Delta X   Delta X   Delta X     New X
                                 (Linear)    (Quad)   (Total)
    R1        2.88841  -0.00028  -0.00013  -0.00087  -0.00100   2.88742
    R2        2.06716   0.00008   0.00002   0.00024   0.00026   2.06741
    R3        2.06465   0.00003  -0.00001   0.00007   0.00006   2.06471
    R4        2.06379  -0.00001   0.00003  -0.00004  -0.00001   2.06378
    R5        2.89441   0.00001  -0.00011   0.00009  -0.00002   2.89439
    R6        2.07074   0.00006   0.00003   0.00016   0.00019   2.07093
    R7        2.06808   0.00006  -0.00001   0.00018   0.00017   2.06825
    R8        2.88842  -0.00028  -0.00013  -0.00087  -0.00100   2.88742
    R9        2.06808   0.00006  -0.00001   0.00018   0.00017   2.06825
   R10        2.07074   0.00006   0.00003   0.00016   0.00019   2.07093
   R11        2.06716   0.00008   0.00002   0.00024   0.00026   2.06741
   R12        2.06465   0.00003  -0.00001   0.00007   0.00006   2.06471
   R13        2.06379   0.00000   0.00003  -0.00004  -0.00001   2.06378
    A1        1.93842   0.00004   0.00002   0.00020   0.00022   1.93864
    A2        1.93363  -0.00002  -0.00009   0.00004  -0.00006   1.93357
    A3        1.95575  -0.00005  -0.00004  -0.00035  -0.00039   1.95536
    A4        1.87858   0.00001   0.00004   0.00012   0.00016   1.87873
    A5        1.88035  -0.00001   0.00001  -0.00029  -0.00029   1.88006
    A6        1.87385   0.00004   0.00007   0.00030   0.00037   1.87422
    A7        2.00202   0.00013  -0.00015   0.00089   0.00074   2.00276
    A8        1.90840  -0.00003  -0.00001   0.00006   0.00006   1.90846
    A9        1.89832  -0.00008   0.00004  -0.00072  -0.00069   1.89764
   A10        1.90529  -0.00002   0.00012   0.00024   0.00036   1.90565
   A11        1.89254  -0.00001  -0.00004  -0.00004  -0.00007   1.89247
   A12        1.85126   0.00000   0.00005  -0.00055  -0.00050   1.85076
   A13        2.00202   0.00013  -0.00015   0.00089   0.00074   2.00276
   A14        1.89254  -0.00001  -0.00004  -0.00004  -0.00007   1.89247
   A15        1.90529  -0.00002   0.00012   0.00024   0.00036   1.90565
   A16        1.89832  -0.00008   0.00004  -0.00072  -0.00069   1.89764
   A17        1.90840  -0.00003  -0.00001   0.00006   0.00006   1.90846
   A18        1.85127   0.00000   0.00005  -0.00055  -0.00050   1.85076
   A19        1.93842   0.00004   0.00002   0.00020   0.00022   1.93864
   A20        1.93362  -0.00002  -0.00009   0.00004  -0.00005   1.93357
   A21        1.95575  -0.00005  -0.00004  -0.00035  -0.00039   1.95536
   A22        1.87858   0.00000   0.00004   0.00011   0.00015   1.87873
   A23        1.88035  -0.00001   0.00001  -0.00029  -0.00029   1.88006
   A24        1.87385   0.00004   0.00007   0.00030   0.00037   1.87422
    D1       -0.98411   0.00000  -0.00010  -0.00335  -0.00345  -0.98756
    D2       -3.13071  -0.00004  -0.00015  -0.00435  -0.00450  -3.13521
    D3        1.13818   0.00002  -0.00022  -0.00333  -0.00356   1.13462
    D4       -3.07096  -0.00001  -0.00011  -0.00365  -0.00375  -3.07471
    D5        1.06563  -0.00006  -0.00015  -0.00465  -0.00480   1.06082
    D6       -0.94867   0.00000  -0.00023  -0.00363  -0.00386  -0.95253
    D7        1.11986  -0.00002  -0.00011  -0.00382  -0.00393   1.11593
    D8       -1.02674  -0.00006  -0.00015  -0.00483  -0.00498  -1.03172
    D9       -3.04104   0.00000  -0.00023  -0.00381  -0.00404  -3.04508
   D10       -1.13235  -0.00005   0.00018  -0.00467  -0.00449  -1.13685
   D11        3.02539  -0.00003   0.00026  -0.00431  -0.00405   3.02134
   D12        1.01592  -0.00002   0.00016  -0.00377  -0.00361   1.01231
   D13        1.01592  -0.00002   0.00016  -0.00377  -0.00361   1.01231
   D14       -1.10952   0.00000   0.00024  -0.00341  -0.00317  -1.11269
   D15       -3.11900   0.00002   0.00014  -0.00286  -0.00273  -3.12173
   D16        3.02539  -0.00003   0.00026  -0.00431  -0.00405   3.02134
   D17        0.89995  -0.00001   0.00034  -0.00395  -0.00361   0.89634
   D18       -1.10953   0.00000   0.00024  -0.00341  -0.00317  -1.11269
   D19       -0.98406   0.00000  -0.00010  -0.00338  -0.00348  -0.98754
   D20       -3.07091  -0.00001  -0.00011  -0.00368  -0.00378  -3.07470
   D21        1.11990  -0.00002  -0.00011  -0.00385  -0.00396   1.11595
   D22        1.13822   0.00002  -0.00022  -0.00336  -0.00358   1.13464
   D23       -0.94863   0.00000  -0.00023  -0.00366  -0.00389  -0.95252
   D24       -3.04100   0.00000  -0.00023  -0.00384  -0.00406  -3.04506
   D25       -3.13066  -0.00004  -0.00015  -0.00438  -0.00453  -3.13519
   D26        1.06567  -0.00006  -0.00015  -0.00468  -0.00483   1.06084
   D27       -1.02669  -0.00006  -0.00015  -0.00485  -0.00501  -1.03170
         Item               Value     Threshold  Converged?
 Maximum Force            0.000282     0.000450     YES
 RMS     Force            0.000066     0.000300     YES
 Maximum Displacement     0.013522     0.001800     NO 
 RMS     Displacement     0.003710     0.001200     NO 
 Predicted change in Energy=-1.606947D-06
 GradGradGradGradGradGradGradGradGradGradGradGradGradGradGradGradGradGrad

                          Input orientation:                          
 ---------------------------------------------------------------------
 Center     Atomic      Atomic             Coordinates (Angstroms)
 Number     Number       Type             X           Y           Z
 ---------------------------------------------------------------------
      1          6           0       -0.002723    0.023077   -0.015137
      2          6           0        0.007612    0.002550    1.512646
      3          1           0        1.015415    0.035142   -0.415323
      4          1           0       -0.515467    0.913146   -0.387483
      5          1           0       -0.513877   -0.846809   -0.433127
      6          6           0        0.785560   -1.161857    2.133043
      7          1           0       -1.023827   -0.015797    1.882464
      8          1           0        0.441723    0.940116    1.873728
      9          6           0        0.196460   -2.544274    1.856394
     10          1           0        0.831131   -1.009605    3.215912
     11          1           0        1.822269   -1.131538    1.779089
     12          1           0       -0.842585   -2.603823    2.193644
     13          1           0        0.760249   -3.318346    2.382441
     14          1           0        0.215523   -2.792445    0.793030
 ---------------------------------------------------------------------
                    Distance matrix (angstroms):
                    1          2          3          4          5
     1  C    0.000000
     2  C    1.527956   0.000000
     3  H    1.094029   2.175729   0.000000
     4  H    1.092598   2.171010   1.765011   0.000000
     5  H    1.092106   2.186183   1.765471   1.760547   0.000000
     6  C    2.576846   1.531646   2.824856   3.514450   2.893618
     7  H    2.155239   1.095887   3.072609   2.504800   2.512487
     8  H    2.146230   1.094469   2.527421   2.455609   3.070481
     9  C    3.183331   2.576847   3.533381   4.182772   2.937325
    10  H    3.493054   2.145637   3.783031   4.300552   3.892433
    11  H    2.807664   2.156416   2.612967   3.786789   3.229946
    12  H    3.533368   2.824849   4.150062   4.374733   3.177275
    13  H    4.182776   3.514450   4.374755   5.215885   3.957186
    14  H    2.937334   2.893626   3.177294   3.957191   2.412672
                    6          7          8          9         10
     6  C    0.000000
     7  H    2.156415   0.000000
     8  H    2.145637   1.749767   0.000000
     9  C    1.527957   2.807664   3.493054   0.000000
    10  H    1.094469   2.491307   2.398855   2.146231   0.000000
    11  H    1.095887   3.058730   2.491307   2.155239   1.749767
    12  H    2.175729   2.612960   3.783028   1.094029   2.527428
    13  H    2.171010   3.786784   4.300552   1.092598   2.455602
    14  H    2.186183   3.229958   3.892440   1.092106   3.070480
                   11         12         13         14
    11  H    0.000000
    12  H    3.072610   0.000000
    13  H    2.504806   1.765011   0.000000
    14  H    2.512481   1.765472   1.760547   0.000000
 Stoichiometry    C4H10
 Framework group  C1[X(C4H10)]
 Deg. of freedom    36
 Full point group                 C1      NOp   1
 Largest Abelian subgroup         C1      NOp   1
 Largest concise Abelian subgroup C1      NOp   1
                         Standard orientation:                         
 ---------------------------------------------------------------------
 Center     Atomic      Atomic             Coordinates (Angstroms)
 Number     Number       Type             X           Y           Z
 ---------------------------------------------------------------------
      1          6           0        1.586917   -0.552948    0.122850
      2          6           0        0.701977    0.616458   -0.306126
      3          1           0        1.684464   -0.593725    1.211758
      4          1           0        2.591078   -0.453347   -0.296092
      5          1           0        1.187681   -1.512977   -0.211293
      6          6           0       -0.701977    0.616458    0.306126
      7          1           0        0.618381    0.626739   -1.398772
      8          1           0        1.199001    1.552246   -0.032023
      9          6           0       -1.586918   -0.552948   -0.122850
     10          1           0       -1.199000    1.552246    0.032023
     11          1           0       -0.618381    0.626739    1.398772
     12          1           0       -1.684450   -0.593735   -1.211759
     13          1           0       -2.591083   -0.453337    0.296077
     14          1           0       -1.187691   -1.512975    0.211308
 ---------------------------------------------------------------------
 Rotational constants (GHZ):     13.4342180      4.6875582      4.0152197
 Standard basis: CC-pVDZ (5D, 7F)
 There are   110 symmetry adapted cartesian basis functions of A   symmetry.
 There are   106 symmetry adapted basis functions of A   symmetry.
   106 basis functions,   202 primitive gaussians,   110 cartesian basis functions
    17 alpha electrons       17 beta electrons
       nuclear repulsion energy       132.2419953188 Hartrees.
 NAtoms=   14 NActive=   14 NUniq=   14 SFac= 1.00D+00 NAtFMM=   60 NAOKFM=F Big=F
 Integral buffers will be    131072 words long.
 Raffenetti 1 integral format.
 Two-electron integral symmetry is turned on.
 One-electron integrals computed using PRISM.
 NBasis=   106 RedAO= T EigKep=  4.94D-03  NBF=   106
 NBsUse=   106 1.00D-06 EigRej= -1.00D+00 NBFU=   106
 Initial guess from the checkpoint file:  "/blue/chm6586/le.chen/hw2/butane/Gau-73128.chk"
 B after Tr=     0.000000    0.000000    0.000000
         Rot=    1.000000   -0.000001   -0.000305    0.000000 Ang=  -0.03 deg.
 Keep R1 ints in memory in canonical form, NReq=17075464.
 Requested convergence on RMS density matrix=1.00D-08 within 128 cycles.
 Requested convergence on MAX density matrix=1.00D-06.
 Requested convergence on             energy=1.00D-06.
 No special actions if energy rises.
 SCF Done:  E(RHF) =  -157.308383907     A.U. after    7 cycles
            NFock=  7  Conv=0.34D-08     -V/T= 2.0013
 Calling FoFJK, ICntrl=      2127 FMM=F ISym2X=0 I1Cent= 0 IOpClX= 0 NMat=1 NMatS=1 NMatT=0.
 ***** Axes restored to original set *****
 -------------------------------------------------------------------
 Center     Atomic                   Forces (Hartrees/Bohr)
 Number     Number              X              Y              Z
 -------------------------------------------------------------------
      1        6           0.000000463   -0.000009875    0.000011613
      2        6           0.000059901   -0.000001929   -0.000026030
      3        1          -0.000015396    0.000015095    0.000000839
      4        1          -0.000012407   -0.000015014   -0.000004242
      5        1           0.000012649   -0.000014009   -0.000036125
      6        6          -0.000062959   -0.000005058    0.000016934
      7        1           0.000007338    0.000003805    0.000004213
      8        1           0.000007941    0.000009151    0.000039201
      9        6           0.000001416    0.000014038   -0.000006359
     10        1           0.000011297    0.000034647    0.000018879
     11        1          -0.000003541    0.000004773    0.000007180
     12        1           0.000018199   -0.000008728    0.000007693
     13        1           0.000004639   -0.000002725   -0.000019271
     14        1          -0.000029542   -0.000024173   -0.000014524
 -------------------------------------------------------------------
 Cartesian Forces:  Max     0.000062959 RMS     0.000020481

 GradGradGradGradGradGradGradGradGradGradGradGradGradGradGradGradGradGrad
 Berny optimization.
 Using GEDIIS/GDIIS optimizer.
 FormGI is forming the generalized inverse of G from B-inverse, IUseBI=4.
 Internal  Forces:  Max     0.000042882 RMS     0.000015794
 Search for a local minimum.
 Step number   4 out of a maximum of  100
 All quantities printed in internal units (Hartrees-Bohrs-Radians)
 Mixed Optimization -- En-DIIS/RFO-DIIS
 Swapping is turned off.
 Update second derivatives using D2CorX and points    1    2    3    4
 DE= -2.03D-06 DEPred=-1.61D-06 R= 1.26D+00
 TightC=F SS=  1.41D+00  RLast= 2.08D-02 DXNew= 5.3484D-01 6.2538D-02
 Trust test= 1.26D+00 RLast= 2.08D-02 DXMaxT set to 3.18D-01
 ITU=  1  1  1  0
     Eigenvalues ---    0.00253   0.00401   0.00489   0.03385   0.03577
     Eigenvalues ---    0.04836   0.04936   0.05468   0.05487   0.05615
     Eigenvalues ---    0.05656   0.08729   0.09038   0.12481   0.12752
     Eigenvalues ---    0.15826   0.16000   0.16000   0.16000   0.16148
     Eigenvalues ---    0.16988   0.21936   0.24652   0.30277   0.31203
     Eigenvalues ---    0.33374   0.33965   0.34068   0.34104   0.34190
     Eigenvalues ---    0.34220   0.34266   0.34291   0.34365   0.35169
     Eigenvalues ---    0.37985
 En-DIIS/RFO-DIIS IScMMF=        0 using points:     4    3    2
 RFO step:  Lambda=-8.16651043D-08.
 DidBck=F Rises=F RFO-DIIS coefs:    1.35560   -0.35429   -0.00131
 Iteration  1 RMS(Cart)=  0.00327152 RMS(Int)=  0.00000689
 Iteration  2 RMS(Cart)=  0.00000731 RMS(Int)=  0.00000003
 Iteration  3 RMS(Cart)=  0.00000000 RMS(Int)=  0.00000003
 Variable       Old X    -DE/DX   Delta X   Delta X   Delta X     New X
                                 (Linear)    (Quad)   (Total)
    R1        2.88742   0.00003  -0.00036   0.00019  -0.00017   2.88725
    R2        2.06741  -0.00001   0.00009  -0.00008   0.00002   2.06743
    R3        2.06471   0.00000   0.00002  -0.00004  -0.00002   2.06469
    R4        2.06378   0.00002   0.00000   0.00008   0.00008   2.06386
    R5        2.89439  -0.00004  -0.00001  -0.00021  -0.00022   2.89417
    R6        2.07093  -0.00001   0.00007  -0.00003   0.00004   2.07097
    R7        2.06825   0.00002   0.00006   0.00007   0.00012   2.06837
    R8        2.88742   0.00003  -0.00036   0.00019  -0.00017   2.88725
    R9        2.06825   0.00002   0.00006   0.00007   0.00013   2.06837
   R10        2.07093  -0.00001   0.00007  -0.00003   0.00004   2.07097
   R11        2.06741  -0.00001   0.00009  -0.00008   0.00002   2.06743
   R12        2.06471   0.00000   0.00002  -0.00004  -0.00002   2.06469
   R13        2.06378   0.00002   0.00000   0.00008   0.00008   2.06386
    A1        1.93864   0.00000   0.00008  -0.00005   0.00003   1.93867
    A2        1.93357   0.00000  -0.00003  -0.00002  -0.00005   1.93352
    A3        1.95536   0.00004  -0.00014   0.00043   0.00029   1.95566
    A4        1.87873   0.00000   0.00006  -0.00010  -0.00005   1.87869
    A5        1.88006  -0.00002  -0.00010  -0.00014  -0.00024   1.87982
    A6        1.87422  -0.00002   0.00014  -0.00014   0.00000   1.87422
    A7        2.00276   0.00000   0.00025  -0.00007   0.00018   2.00294
    A8        1.90846   0.00001   0.00002  -0.00001   0.00001   1.90846
    A9        1.89764   0.00002  -0.00024   0.00047   0.00023   1.89786
   A10        1.90565  -0.00001   0.00014  -0.00031  -0.00017   1.90548
   A11        1.89247  -0.00001  -0.00003   0.00000  -0.00003   1.89243
   A12        1.85076   0.00000  -0.00017  -0.00007  -0.00025   1.85052
   A13        2.00276   0.00000   0.00025  -0.00007   0.00018   2.00294
   A14        1.89247  -0.00001  -0.00003   0.00000  -0.00003   1.89243
   A15        1.90565  -0.00001   0.00014  -0.00031  -0.00017   1.90548
   A16        1.89764   0.00002  -0.00024   0.00047   0.00023   1.89786
   A17        1.90846   0.00001   0.00002  -0.00001   0.00001   1.90846
   A18        1.85076   0.00000  -0.00018  -0.00007  -0.00025   1.85051
   A19        1.93864   0.00000   0.00008  -0.00005   0.00003   1.93867
   A20        1.93357   0.00000  -0.00002  -0.00002  -0.00005   1.93352
   A21        1.95536   0.00004  -0.00014   0.00043   0.00029   1.95566
   A22        1.87873   0.00000   0.00006  -0.00010  -0.00005   1.87869
   A23        1.88006  -0.00002  -0.00010  -0.00014  -0.00024   1.87982
   A24        1.87422  -0.00002   0.00014  -0.00014   0.00000   1.87422
    D1       -0.98756  -0.00002  -0.00123  -0.00307  -0.00430  -0.99186
    D2       -3.13521  -0.00001  -0.00161  -0.00260  -0.00421  -3.13942
    D3        1.13462  -0.00001  -0.00128  -0.00277  -0.00405   1.13057
    D4       -3.07471  -0.00001  -0.00134  -0.00289  -0.00423  -3.07894
    D5        1.06082   0.00000  -0.00172  -0.00242  -0.00414   1.05668
    D6       -0.95253  -0.00001  -0.00139  -0.00259  -0.00398  -0.95651
    D7        1.11593  -0.00002  -0.00140  -0.00298  -0.00438   1.11154
    D8       -1.03172  -0.00001  -0.00178  -0.00252  -0.00430  -1.03602
    D9       -3.04508  -0.00001  -0.00145  -0.00268  -0.00413  -3.04921
   D10       -1.13685   0.00001  -0.00159  -0.00095  -0.00254  -1.13939
   D11        3.02134  -0.00001  -0.00142  -0.00151  -0.00293   3.01841
   D12        1.01231   0.00001  -0.00127  -0.00126  -0.00253   1.00978
   D13        1.01231   0.00001  -0.00127  -0.00126  -0.00253   1.00977
   D14       -1.11269  -0.00001  -0.00111  -0.00181  -0.00292  -1.11561
   D15       -3.12173   0.00000  -0.00096  -0.00156  -0.00252  -3.12425
   D16        3.02134  -0.00001  -0.00142  -0.00151  -0.00293   3.01841
   D17        0.89634  -0.00003  -0.00126  -0.00206  -0.00332   0.89302
   D18       -1.11269  -0.00001  -0.00111  -0.00181  -0.00292  -1.11561
   D19       -0.98754  -0.00002  -0.00124  -0.00308  -0.00432  -0.99186
   D20       -3.07470  -0.00001  -0.00135  -0.00290  -0.00425  -3.07895
   D21        1.11595  -0.00002  -0.00141  -0.00299  -0.00441   1.11154
   D22        1.13464  -0.00001  -0.00129  -0.00278  -0.00407   1.13057
   D23       -0.95252  -0.00001  -0.00140  -0.00260  -0.00400  -0.95651
   D24       -3.04506  -0.00001  -0.00146  -0.00270  -0.00416  -3.04922
   D25       -3.13519  -0.00001  -0.00162  -0.00262  -0.00424  -3.13943
   D26        1.06084   0.00000  -0.00173  -0.00244  -0.00416   1.05668
   D27       -1.03170  -0.00001  -0.00179  -0.00253  -0.00432  -1.03602
         Item               Value     Threshold  Converged?
 Maximum Force            0.000043     0.000450     YES
 RMS     Force            0.000016     0.000300     YES
 Maximum Displacement     0.012153     0.001800     NO 
 RMS     Displacement     0.003271     0.001200     NO 
 Predicted change in Energy=-5.395078D-07
 GradGradGradGradGradGradGradGradGradGradGradGradGradGradGradGradGradGrad

                          Input orientation:                          
 ---------------------------------------------------------------------
 Center     Atomic      Atomic             Coordinates (Angstroms)
 Number     Number       Type             X           Y           Z
 ---------------------------------------------------------------------
      1          6           0       -0.001290    0.023827   -0.015594
[...]
 ! R2    R(1,3)                  1.094          -DE/DX =    0.0                 !
 ! R3    R(1,4)                  1.0926         -DE/DX =    0.0                 !
 ! R4    R(1,5)                  1.0921         -DE/DX =    0.0                 !
 ! R5    R(2,6)                  1.5316         -DE/DX =    0.0                 !
 ! R6    R(2,7)                  1.0959         -DE/DX =    0.0                 !
 ! R7    R(2,8)                  1.0945         -DE/DX =    0.0                 !
 ! R8    R(6,9)                  1.5279         -DE/DX =    0.0                 !
 ! R9    R(6,10)                 1.0945         -DE/DX =    0.0                 !
 ! R10   R(6,11)                 1.0959         -DE/DX =    0.0                 !
 ! R11   R(9,12)                 1.094          -DE/DX =    0.0                 !
 ! R12   R(9,13)                 1.0926         -DE/DX =    0.0                 !
 ! R13   R(9,14)                 1.0921         -DE/DX =    0.0                 !
 ! A1    A(2,1,3)              111.0748         -DE/DX =    0.0                 !
 ! A2    A(2,1,4)              110.7851         -DE/DX =    0.0                 !
 ! A3    A(2,1,5)              112.0529         -DE/DX =    0.0                 !
 ! A4    A(3,1,4)              107.6398         -DE/DX =    0.0                 !
 ! A5    A(3,1,5)              107.7105         -DE/DX =    0.0                 !
 ! A6    A(4,1,5)              107.3794         -DE/DX =    0.0                 !
 ! A7    A(1,2,6)              114.7579         -DE/DX =    0.0                 !
 ! A8    A(1,2,7)              109.3506         -DE/DX =    0.0                 !
 ! A9    A(1,2,8)              108.7304         -DE/DX =    0.0                 !
 ! A10   A(6,2,7)              109.1815         -DE/DX =    0.0                 !
 ! A11   A(6,2,8)              108.428          -DE/DX =    0.0                 !
 ! A12   A(7,2,8)              106.0297         -DE/DX =    0.0                 !
 ! A13   A(2,6,9)              114.7579         -DE/DX =    0.0                 !
 ! A14   A(2,6,10)             108.428          -DE/DX =    0.0                 !
 ! A15   A(2,6,11)             109.1815         -DE/DX =    0.0                 !
 ! A16   A(9,6,10)             108.7304         -DE/DX =    0.0                 !
 ! A17   A(9,6,11)             109.3507         -DE/DX =    0.0                 !
 ! A18   A(10,6,11)            106.0297         -DE/DX =    0.0                 !
 ! A19   A(6,9,12)             111.0748         -DE/DX =    0.0                 !
 ! A20   A(6,9,13)             110.7851         -DE/DX =    0.0                 !
 ! A21   A(6,9,14)             112.0529         -DE/DX =    0.0                 !
 ! A22   A(12,9,13)            107.6398         -DE/DX =    0.0                 !
 ! A23   A(12,9,14)            107.7105         -DE/DX =    0.0                 !
 ! A24   A(13,9,14)            107.3794         -DE/DX =    0.0                 !
 ! D1    D(3,1,2,6)            -56.853          -DE/DX =    0.0                 !
 ! D2    D(3,1,2,7)           -179.9077         -DE/DX =    0.0                 !
 ! D3    D(3,1,2,8)             64.7444         -DE/DX =    0.0                 !
 ! D4    D(4,1,2,6)           -176.4326         -DE/DX =    0.0                 !
 ! D5    D(4,1,2,7)             60.5127         -DE/DX =    0.0                 !
 ! D6    D(4,1,2,8)            -54.8352         -DE/DX =    0.0                 !
 ! D7    D(5,1,2,6)             63.6683         -DE/DX =    0.0                 !
 ! D8    D(5,1,2,7)            -59.3864         -DE/DX =    0.0                 !
 ! D9    D(5,1,2,8)           -174.7343         -DE/DX =    0.0                 !
 ! D10   D(1,2,6,9)            -65.3519         -DE/DX =    0.0                 !
 ! D11   D(1,2,6,10)           172.8859         -DE/DX =    0.0                 !
 ! D12   D(1,2,6,11)            57.7935         -DE/DX =    0.0                 !
 ! D13   D(7,2,6,9)             57.7935         -DE/DX =    0.0                 !
 ! D14   D(7,2,6,10)           -63.9687         -DE/DX =    0.0                 !
 ! D15   D(7,2,6,11)          -179.0611         -DE/DX =    0.0                 !
 ! D16   D(8,2,6,9)            172.8859         -DE/DX =    0.0                 !
 ! D17   D(8,2,6,10)            51.1238         -DE/DX =    0.0                 !
 ! D18   D(8,2,6,11)           -63.9686         -DE/DX =    0.0                 !
 ! D19   D(2,6,9,12)           -56.8533         -DE/DX =    0.0                 !
 ! D20   D(2,6,9,13)          -176.4329         -DE/DX =    0.0                 !
 ! D21   D(2,6,9,14)            63.6681         -DE/DX =    0.0                 !
 ! D22   D(10,6,9,12)           64.7442         -DE/DX =    0.0                 !
 ! D23   D(10,6,9,13)          -54.8354         -DE/DX =    0.0                 !
 ! D24   D(10,6,9,14)         -174.7345         -DE/DX =    0.0                 !
 ! D25   D(11,6,9,12)         -179.908          -DE/DX =    0.0                 !
 ! D26   D(11,6,9,13)           60.5124         -DE/DX =    0.0                 !
 ! D27   D(11,6,9,14)          -59.3866         -DE/DX =    0.0                 !
 --------------------------------------------------------------------------------
 GradGradGradGradGradGradGradGradGradGradGradGradGradGradGradGradGradGrad

                          Input orientation:                          
 ---------------------------------------------------------------------
 Center     Atomic      Atomic             Coordinates (Angstroms)
 Number     Number       Type             X           Y           Z
 ---------------------------------------------------------------------
      1          6           0       -0.000955    0.024185   -0.015764
      2          6           0        0.007367    0.002011    1.511983
      3          1           0        1.017649    0.042301   -0.414489
      4          1           0       -0.517987    0.911880   -0.387830
      5          1           0       -0.506683   -0.847928   -0.435770
      6          6           0        0.785348   -1.162350    2.132338
      7          1           0       -1.024536   -0.017491    1.880491
      8          1           0        0.440170    0.939578    1.874739
      9          6           0        0.195010   -2.544666    1.857970
     10          1           0        0.832714   -1.008985    3.215009
     11          1           0        1.821598   -1.132972    1.776916
     12          1           0       -0.842050   -2.604719    2.201136
     13          1           0        0.761939   -3.319004    2.380226
     14          1           0        0.207880   -2.792302    0.794365
 ---------------------------------------------------------------------
                    Distance matrix (angstroms):
                    1          2          3          4          5
     1  C    0.000000
     2  C    1.527931   0.000000
     3  H    1.094012   2.175681   0.000000
     4  H    1.092593   2.170980   1.764952   0.000000
     5  H    1.092129   2.186409   1.765374   1.760497   0.000000
     6  C    2.576912   1.531610   2.826919   3.514592   2.891950
     7  H    2.155281   1.095903   3.072625   2.503119   2.514530
     8  H    2.146284   1.094505   2.525698   2.457245   3.070856
     9  C    3.185636   2.576912   3.540226   4.183264   2.938117
    10  H    3.492898   2.145601   3.783207   4.300531   3.892057
    11  H    2.806139   2.156342   2.613399   3.786979   3.224611
    12  H    3.540229   2.826921   4.160131   4.378839   3.186229
    13  H    4.183263   3.514593   4.378834   5.215431   3.955432
    14  H    2.938115   2.891948   3.186224   3.955431   2.409237
                    6          7          8          9         10
     6  C    0.000000
     7  H    2.156342   0.000000
     8  H    2.145601   1.749679   0.000000
     9  C    1.527931   2.806139   3.492898   0.000000
    10  H    1.094505   2.492665   2.397355   2.146284   0.000000
    11  H    1.095903   3.058678   2.492664   2.155281   1.749679
    12  H    2.175681   2.613401   3.783208   1.094012   2.525696
    13  H    2.170980   3.786980   4.300531   1.092593   2.457247
    14  H    2.186409   3.224608   3.892055   1.092129   3.070856
                   11         12         13         14
    11  H    0.000000
    12  H    3.072625   0.000000
    13  H    2.503117   1.764952   0.000000
    14  H    2.514532   1.765374   1.760497   0.000000
 Stoichiometry    C4H10
 Framework group  C1[X(C4H10)]
 Deg. of freedom    36
 Full point group                 C1      NOp   1
 Largest Abelian subgroup         C1      NOp   1
 Largest concise Abelian subgroup C1      NOp   1
                         Standard orientation:                         
 ---------------------------------------------------------------------
 Center     Atomic      Atomic             Coordinates (Angstroms)
 Number     Number       Type             X           Y           Z
 ---------------------------------------------------------------------
      1          6           0        1.588064   -0.552252    0.122976
      2          6           0        0.701620    0.615651   -0.306898
      3          1           0        1.690796   -0.588262    1.211558
      4          1           0        2.590271   -0.454917   -0.301128
      5          1           0        1.187070   -1.513742   -0.204878
      6          6           0       -0.701620    0.615651    0.306898
      7          1           0        0.616723    0.624132   -1.399475
      8          1           0        1.198165    1.552395   -0.035059
      9          6           0       -1.588064   -0.552252   -0.122976
     10          1           0       -1.198165    1.552395    0.035059
     11          1           0       -0.616723    0.624132    1.399475
     12          1           0       -1.690800   -0.588259   -1.211558
     13          1           0       -2.590270   -0.454919    0.301132
     14          1           0       -1.187067   -1.513742    0.204874
 ---------------------------------------------------------------------
 Rotational constants (GHZ):     13.4475212      4.6825615      4.0137695

 **********************************************************************

            Population analysis using the SCF density.

 **********************************************************************

 Orbital symmetries:
       Occupied  (A) (A) (A) (A) (A) (A) (A) (A) (A) (A) (A) (A)
                 (A) (A) (A) (A) (A)
       Virtual   (A) (A) (A) (A) (A) (A) (A) (A) (A) (A) (A) (A)
                 (A) (A) (A) (A) (A) (A) (A) (A) (A) (A) (A) (A)
                 (A) (A) (A) (A) (A) (A) (A) (A) (A) (A) (A) (A)
                 (A) (A) (A) (A) (A) (A) (A) (A) (A) (A) (A) (A)
                 (A) (A) (A) (A) (A) (A) (A) (A) (A) (A) (A) (A)
                 (A) (A) (A) (A) (A) (A) (A) (A) (A) (A) (A) (A)
                 (A) (A) (A) (A) (A) (A) (A) (A) (A) (A) (A) (A)
                 (A) (A) (A) (A) (A)
 The electronic state is 1-A.
 Alpha  occ. eigenvalues --  -11.22017 -11.21959 -11.21586 -11.21586  -1.06921
 Alpha  occ. eigenvalues --   -0.97634  -0.87289  -0.77536  -0.62145  -0.61701
 Alpha  occ. eigenvalues --   -0.57256  -0.53232  -0.52962  -0.50235  -0.46048
 Alpha  occ. eigenvalues --   -0.45678  -0.45551
 Alpha virt. eigenvalues --    0.18051   0.21881   0.22104   0.22759   0.25980
 Alpha virt. eigenvalues --    0.27359   0.28315   0.28763   0.29015   0.31522
 Alpha virt. eigenvalues --    0.38427   0.39963   0.44337   0.57652   0.58744
 Alpha virt. eigenvalues --    0.61784   0.61879   0.62779   0.66529   0.72496
 Alpha virt. eigenvalues --    0.83518   0.84645   0.85295   0.88023   0.88788
 Alpha virt. eigenvalues --    0.89241   0.89896   0.91077   0.91100   0.91914
 Alpha virt. eigenvalues --    0.92260   0.93568   0.95750   0.97412   1.01669
 Alpha virt. eigenvalues --    1.13038   1.13197   1.18361   1.34333   1.37481
 Alpha virt. eigenvalues --    1.41743   1.42824   1.51161   1.59001   1.63127
 Alpha virt. eigenvalues --    1.67137   1.69146   1.70359   1.72970   1.86252
 Alpha virt. eigenvalues --    1.86348   1.88147   1.91607   1.91696   1.93993
 Alpha virt. eigenvalues --    1.94951   1.95427   1.96530   1.97054   1.99297
 Alpha virt. eigenvalues --    2.00005   2.00365   2.01087   2.05808   2.08704
 Alpha virt. eigenvalues --    2.14113   2.15448   2.26805   2.29608   2.33412
 Alpha virt. eigenvalues --    2.34816   2.38169   2.42731   2.50733   2.54015
 Alpha virt. eigenvalues --    2.57393   2.58788   2.61769   2.62047   2.76658
 Alpha virt. eigenvalues --    2.77305   2.80525   2.84434   2.85376   2.88304
 Alpha virt. eigenvalues --    2.96591   2.98371   3.05485   3.09275
          Condensed to atoms (all electrons):
               1          2          3          4          5          6
     1  C    4.529561   0.418761   0.407685   0.409379   0.409823  -0.063993
     2  C    0.418761   4.643798  -0.032416  -0.022773  -0.028050   0.424752
     3  H    0.407685  -0.032416   0.650167  -0.025673  -0.027909  -0.004112
     4  H    0.409379  -0.022773  -0.025673   0.641558  -0.025993   0.005754
     5  H    0.409823  -0.028050  -0.027909  -0.025993   0.645134  -0.004327
     6  C   -0.063993   0.424752  -0.004112   0.005754  -0.004327   4.643797
     7  H   -0.032783   0.400982   0.007515  -0.004518  -0.006439  -0.032236
     8  H   -0.030456   0.404314  -0.005640  -0.006312   0.007384  -0.026507
     9  C   -0.004552  -0.063993  -0.000477  -0.000126   0.001379   0.418761
    10  H    0.006553  -0.026507   0.000015  -0.000226  -0.000141   0.404314
    11  H   -0.006153  -0.032236   0.004021  -0.000031  -0.000363   0.400982
    12  H   -0.000477  -0.004112   0.000035  -0.000040   0.000298  -0.032416
    13  H   -0.000126   0.005754  -0.000040   0.000014  -0.000052  -0.022773
    14  H    0.001379  -0.004327   0.000298  -0.000052  -0.000450  -0.028050
               7          8          9         10         11         12
     1  C   -0.032783  -0.030456  -0.004552   0.006553  -0.006153  -0.000477
     2  C    0.400982   0.404314  -0.063993  -0.026507  -0.032236  -0.004112
     3  H    0.007515  -0.005640  -0.000477   0.000015   0.004021   0.000035
     4  H   -0.004518  -0.006312  -0.000126  -0.000226  -0.000031  -0.000040
     5  H   -0.006439   0.007384   0.001379  -0.000141  -0.000363   0.000298
     6  C   -0.032236  -0.026507   0.418761   0.404314   0.400982  -0.032416
     7  H    0.677348  -0.031688  -0.006153  -0.005062   0.008043   0.004021
     8  H   -0.031688   0.672782   0.006553  -0.006919  -0.005062   0.000015
     9  C   -0.006153   0.006553   4.529561  -0.030456  -0.032783   0.407685
    10  H   -0.005062  -0.006919  -0.030456   0.672782  -0.031688  -0.005640
    11  H    0.008043  -0.005062  -0.032783  -0.031688   0.677348   0.007515
    12  H    0.004021   0.000015   0.407685  -0.005640   0.007515   0.650167
    13  H   -0.000031  -0.000226   0.409379  -0.006312  -0.004518  -0.025673
    14  H   -0.000363  -0.000141   0.409823   0.007384  -0.006439  -0.027909
              13         14
     1  C   -0.000126   0.001379
     2  C    0.005754  -0.004327
     3  H   -0.000040   0.000298
     4  H    0.000014  -0.000052
     5  H   -0.000052  -0.000450
     6  C   -0.022773  -0.028050
     7  H   -0.000031  -0.000363
     8  H   -0.000226  -0.000141
     9  C    0.409379   0.409823
    10  H   -0.006312   0.007384
    11  H   -0.004518  -0.006439
    12  H   -0.025673  -0.027909
    13  H    0.641558  -0.025993
    14  H   -0.025993   0.645134
 Mulliken charges:
               1
     1  C   -0.044600
     2  C   -0.083946
     3  H    0.026531
     4  H    0.029039
     5  H    0.029708
     6  C   -0.083946
     7  H    0.021364
     8  H    0.021905
     9  C   -0.044600
    10  H    0.021904
    11  H    0.021364
    12  H    0.026531
    13  H    0.029039
    14  H    0.029708
 Sum of Mulliken charges =   0.00000
 Mulliken charges with hydrogens summed into heavy atoms:
               1
     1  C    0.040678
     2  C   -0.040678
     6  C   -0.040678
     9  C    0.040678
 Electronic spatial extent (au):  <R**2>=            384.3618
 Charge=              0.0000 electrons
 Dipole moment (field-independent basis, Debye):
    X=              0.0000    Y=              0.0695    Z=              0.0000  Tot=              0.0695
 Quadrupole moment (field-independent basis, Debye-Ang):
   XX=            -28.9465   YY=            -28.8353   ZZ=            -28.4200
   XY=              0.0000   XZ=             -0.0450   YZ=              0.0000
 Traceless Quadrupole moment (field-independent basis, Debye-Ang):
   XX=             -0.2126   YY=             -0.1014   ZZ=              0.3139
   XY=              0.0000   XZ=             -0.0450   YZ=              0.0000
 Octapole moment (field-independent basis, Debye-Ang**2):
  XXX=              0.0000  YYY=              0.2341  ZZZ=              0.0000  XYY=              0.0000
  XXY=              1.3994  XXZ=              0.0000  XZZ=              0.0000  YZZ=             -0.0588
  YYZ=              0.0000  XYZ=              0.4880
 Hexadecapole moment (field-independent basis, Debye-Ang**3):
 XXXX=           -336.8108 YYYY=           -124.3652 ZZZZ=            -67.0827 XXXY=              0.0000
 XXXZ=             -4.0734 YYYX=              0.0000 YYYZ=              0.0000 ZZZX=              1.4220
 ZZZY=              0.0000 XXYY=            -80.0724 XXZZ=            -68.5123 YYZZ=            -33.9475
 XXYZ=              0.0000 YYXZ=              0.2677 ZZXY=              0.0000
 N-N= 1.322335239772D+02 E-N=-6.295641530566D+02  KE= 1.571070117331D+02
 B after Tr=    -0.003375    0.001088    0.001851
         Rot=    1.000000   -0.000164   -0.000377   -0.000497 Ang=  -0.07 deg.
 Final structure in terms of initial Z-matrix:
 C
 C,1,B1
 H,1,B2,2,A2
 H,1,B3,2,A3,3,D3,0
 H,1,B4,2,A4,3,D4,0
 C,2,B5,1,A5,3,D5,0
 H,2,B6,1,A6,3,D6,0
 H,2,B7,1,A7,3,D7,0
 C,6,B8,2,A8,1,D8,0
 H,6,B9,2,A9,1,D9,0
 H,6,B10,2,A10,1,D10,0
 H,9,B11,6,A11,2,D11,0
 H,9,B12,6,A12,2,D12,0
 H,9,B13,6,A13,2,d13,0
      Variables:
 B1=1.52793084
 B2=1.09401225
 A2=111.07479785
 B3=1.09259256
 A3=110.78506354
 D3=-119.57961328
 B4=1.0921294
 A4=112.05285644
 D4=120.5213339
 B5=1.53160965
 A5=114.75790803
 D5=-56.85300582
 B6=1.09590308
 A6=109.35063445
 D6=-179.90772229
 B7=1.09450505
 A7=108.73039295
 D7=64.74441416
 B8=1.52793058
 A8=114.75791223
 D8=-65.35194131
 B9=1.09450509
 A9=108.42801651
 D9=172.88593264
 B10=1.0959031
 A10=109.18147515
 D10=57.79348471
 B11=1.09401226
 A11=111.07480256
 D11=-56.85325662
 B12=1.09259258
 A12=110.78508311
 D12=-176.43286576
 B13=1.09212942
 A13=112.05286022
 d13=63.66807664
 1\1\GINC-C0700A-S1\FOpt\RHF\CC-pVDZ\C4H10\LE.CHEN\21-Sep-2021\0\\#n HF
 /cc-pvdz Opt=(MaxCyc=2000)\\Title\\0,1\C,0.0009953311,0.0239803628,-0.
 0162534929\C,0.0093174843,0.0018057457,1.5114937646\H,1.0195988078,0.0
 420960223,-0.4149784293\H,-0.5160373284,0.9116752429,-0.388320057\H,-0
 .5047323911,-0.8481328109,-0.4362591069\C,0.7872976614,-1.1625548624,2
 .1318479763\H,-1.0225863717,-0.017695561,1.8800011348\H,0.4421199232,0
 .9393727277,1.8742492\C,0.1969602244,-2.5448704072,1.8574808721\H,0.83
 46639559,-1.0091897851,3.2145192017\H,1.8235485705,-1.1331768763,1.776
 4262664\H,-0.8401000908,-2.6049242635,2.2006459527\H,0.7638889402,-3.3
 192088667,2.3797359221\H,0.2098305427,-2.7925069186,0.7938751304\\Vers
 ion=AS64L-G09RevD.01\State=1-A\HF=-157.3083845\RMSD=4.063e-09\RMSF=8.2
 68e-06\Dipole=0.0070094,0.0159254,0.0211002\Quadrupole=0.2145969,-0.12
 71445,-0.0874524,-0.0290928,-0.0743675,0.0487441\PG=C01 [X(C4H10)]\\@


 IT IS A QUALITY OF REVOLUTIONS NOT TO GO BY OLD LINES OR OLD LAWS,
 BUT TO BREAK UP BOTH, AND MAKE NEW ONES.
                                              -- A. LINCOLN (1848)
 Job cpu time:       0 days  0 hours  0 minutes 23.5 seconds.
 File lengths (MBytes):  RWF=      7 Int=      0 D2E=      0 Chk=      2 Scr=      1
 Normal termination of Gaussian 09 at Tue Sep 21 15:22:40 2021.
