 Entering Gaussian System, Link 0=g09
 Initial command:
 /apps/gaussian/g09/amd-sse4a/l1.exe "/blue/chm6586/le.chen/hw2/Gau-127911.inp" -scrdir="/blue/chm6586/le.chen/hw2/"
 Entering Link 1 = /apps/gaussian/g09/amd-sse4a/l1.exe PID=    127912.
  
 Copyright (c) 1988,1990,1992,1993,1995,1998,2003,2009,2013,
            Gaussian, Inc.  All Rights Reserved.
  
 This is part of the Gaussian(R) 09 program.  It is based on
 the Gaussian(R) 03 system (copyright 2003, Gaussian, Inc.),
 the Gaussian(R) 98 system (copyright 1998, Gaussian, Inc.),
 the Gaussian(R) 94 system (copyright 1995, Gaussian, Inc.),
 the Gaussian 92(TM) system (copyright 1992, Gaussian, Inc.),
 the Gaussian 90(TM) system (copyright 1990, Gaussian, Inc.),
 the Gaussian 88(TM) system (copyright 1988, Gaussian, Inc.),
 the Gaussian 86(TM) system (copyright 1986, Carnegie Mellon
 University), and the Gaussian 82(TM) system (copyright 1983,
 Carnegie Mellon University). Gaussian is a federally registered
 trademark of Gaussian, Inc.
  
 This software contains proprietary and confidential information,
 including trade secrets, belonging to Gaussian, Inc.
  
 This software is provided under written license and may be
 used, copied, transmitted, or stored only in accord with that
 written license.
  
 The following legend is applicable only to US Government
 contracts under FAR:
  
                    RESTRICTED RIGHTS LEGEND
  
 Use, reproduction and disclosure by the US Government is
 subject to restrictions as set forth in subparagraphs (a)
 and (c) of the Commercial Computer Software - Restricted
 Rights clause in FAR 52.227-19.
  
 Gaussian, Inc.
 340 Quinnipiac St., Bldg. 40, Wallingford CT 06492
  
  
 ---------------------------------------------------------------
 Warning -- This program may not be used in any manner that
 competes with the business of Gaussian, Inc. or will provide
 assistance to any competitor of Gaussian, Inc.  The licensee
 of this program is prohibited from giving any competitor of
 Gaussian, Inc. access to this program.  By using this program,
 the user acknowledges that Gaussian, Inc. is engaged in the
 business of creating and licensing software in the field of
 computational chemistry and represents and warrants to the
 licensee that it is not a competitor of Gaussian, Inc. and that
 it will not use this program in any manner prohibited above.
 ---------------------------------------------------------------
  

 Cite this work as:
 Gaussian 09, Revision D.01,
 M. J. Frisch, G. W. Trucks, H. B. Schlegel, G. E. Scuseria, 
 M. A. Robb, J. R. Cheeseman, G. Scalmani, V. Barone, B. Mennucci, 
 G. A. Petersson, H. Nakatsuji, M. Caricato, X. Li, H. P. Hratchian, 
 A. F. Izmaylov, J. Bloino, G. Zheng, J. L. Sonnenberg, M. Hada, 
 M. Ehara, K. Toyota, R. Fukuda, J. Hasegawa, M. Ishida, T. Nakajima, 
 Y. Honda, O. Kitao, H. Nakai, T. Vreven, J. A. Montgomery, Jr., 
 J. E. Peralta, F. Ogliaro, M. Bearpark, J. J. Heyd, E. Brothers, 
 K. N. Kudin, V. N. Staroverov, T. Keith, R. Kobayashi, J. Normand, 
 K. Raghavachari, A. Rendell, J. C. Burant, S. S. Iyengar, J. Tomasi, 
 M. Cossi, N. Rega, J. M. Millam, M. Klene, J. E. Knox, J. B. Cross, 
 V. Bakken, C. Adamo, J. Jaramillo, R. Gomperts, R. E. Stratmann, 
 O. Yazyev, A. J. Austin, R. Cammi, C. Pomelli, J. W. Ochterski, 
 R. L. Martin, K. Morokuma, V. G. Zakrzewski, G. A. Voth, 
 P. Salvador, J. J. Dannenberg, S. Dapprich, A. D. Daniels, 
 O. Farkas, J. B. Foresman, J. V. Ortiz, J. Cioslowski, 
 and D. J. Fox, Gaussian, Inc., Wallingford CT, 2013.
 
 ******************************************
 Gaussian 09:  AS64L-G09RevD.01 24-Apr-2013
                19-Sep-2021 
 ******************************************
 -------------------------------
 #n HF/cc-pvdz Opt=(MaxCyc=2000)
 -------------------------------
 1/6=2000,18=20,19=15,38=1/1,3;
 2/9=110,12=2,17=6,18=5,40=1/2;
 3/5=16,11=9,16=1,25=1,30=1,71=1/1,2,3;
 4//1;
 5/5=2,38=5/2;
 6/7=2,8=2,9=2,10=2,28=1/1;
 7//1,2,3,16;
 1/6=2000,18=20,19=15/3(2);
 2/9=110/2;
 99//99;
 2/9=110/2;
 3/5=16,11=9,16=1,25=1,30=1,71=1/1,2,3;
 4/5=5,16=3,69=1/1;
 5/5=2,38=5/2;
 7//1,2,3,16;
 1/6=2000,18=20,19=15/3(-5);
 2/9=110/2;
 6/7=2,8=2,9=2,10=2,19=2,28=1/1;
 99/9=1/99;
 -----
 Title
 -----
 Symbolic Z-matrix:
 Charge =  0 Multiplicity = 1
 C
 C                    1    B1
 H                    1    B2       2    A2
 H                    1    B3       2    A3       3    D3       0
 H                    1    B4       2    A4       3    D4       0
 C                    2    B5       1    A5       3    D5       0
 H                    2    B6       1    A6       3    D6       0
 H                    2    B7       1    A7       3    D7       0
 C                    6    B8       2    A8       1    D8       0
 H                    6    B9       2    A9       1    D9       0
 H                    6    B10      2    A10      1    D10      0
 H                    9    B11      6    A11      2    D11      0
 H                    9    B12      6    A12      2    D12      0
 H                    9    B13      6    A13      2    D13      0
       Variables:
  B1                    1.52094                  
  B2                    1.09396                  
  A2                  111.49137                  
  B3                    1.09477                  
  A3                  110.05524                  
  D3                  240.67292                  
  B4                    1.09454                  
  A4                  111.05433                  
  D4                  121.10025                  
  B5                    1.52898                  
  A5                  113.46907                  
  D5                  294.08937                  
  B6                    1.09649                  
  A6                  108.55753                  
  D6                  173.38852                  
  B7                    1.0962                   
  A7                  109.39491                  
  D7                   57.19133                  
  B8                    1.52092                  
  A8                  113.47443                  
  D8                   64.84197                  
  B9                    1.09623                  
  A9                  109.89475                  
  D9                  302.00843                  
  B10                   1.09655                  
  A10                 108.48903                  
  D10                 185.58285                  
  B11                   1.09395                  
  A11                 111.48864                  
  D11                 294.08534                  
  B12                   1.09477                  
  A12                 110.05723                  
  D12                 174.76006                  
  B13                   1.09452                  
  A13                 111.05511                  
  D13                  55.18459                  
 

 GradGradGradGradGradGradGradGradGradGradGradGradGradGradGradGradGradGrad
 Berny optimization.
 Initialization pass.
                           ----------------------------
                           !    Initial Parameters    !
                           ! (Angstroms and Degrees)  !
 --------------------------                            --------------------------
 ! Name  Definition              Value          Derivative Info.                !
 --------------------------------------------------------------------------------
 ! R1    R(1,2)                  1.5209         estimate D2E/DX2                !
 ! R2    R(1,3)                  1.094          estimate D2E/DX2                !
 ! R3    R(1,4)                  1.0948         estimate D2E/DX2                !
 ! R4    R(1,5)                  1.0945         estimate D2E/DX2                !
 ! R5    R(2,6)                  1.529          estimate D2E/DX2                !
 ! R6    R(2,7)                  1.0965         estimate D2E/DX2                !
 ! R7    R(2,8)                  1.0962         estimate D2E/DX2                !
 ! R8    R(6,9)                  1.5209         estimate D2E/DX2                !
 ! R9    R(6,10)                 1.0962         estimate D2E/DX2                !
 ! R10   R(6,11)                 1.0966         estimate D2E/DX2                !
 ! R11   R(9,12)                 1.0939         estimate D2E/DX2                !
 ! R12   R(9,13)                 1.0948         estimate D2E/DX2                !
 ! R13   R(9,14)                 1.0945         estimate D2E/DX2                !
 ! A1    A(2,1,3)              111.4914         estimate D2E/DX2                !
 ! A2    A(2,1,4)              110.0552         estimate D2E/DX2                !
 ! A3    A(2,1,5)              111.0543         estimate D2E/DX2                !
 ! A4    A(3,1,4)              107.6061         estimate D2E/DX2                !
 ! A5    A(3,1,5)              108.4768         estimate D2E/DX2                !
 ! A6    A(4,1,5)              108.0263         estimate D2E/DX2                !
 ! A7    A(1,2,6)              113.4691         estimate D2E/DX2                !
 ! A8    A(1,2,7)              108.5575         estimate D2E/DX2                !
 ! A9    A(1,2,8)              109.3949         estimate D2E/DX2                !
 ! A10   A(6,2,7)              108.495          estimate D2E/DX2                !
 ! A11   A(6,2,8)              109.8935         estimate D2E/DX2                !
 ! A12   A(7,2,8)              106.8024         estimate D2E/DX2                !
 ! A13   A(2,6,9)              113.4744         estimate D2E/DX2                !
 ! A14   A(2,6,10)             109.8948         estimate D2E/DX2                !
 ! A15   A(2,6,11)             108.489          estimate D2E/DX2                !
 ! A16   A(9,6,10)             109.3959         estimate D2E/DX2                !
 ! A17   A(9,6,11)             108.5619         estimate D2E/DX2                !
 ! A18   A(10,6,11)            106.7957         estimate D2E/DX2                !
 ! A19   A(6,9,12)             111.4886         estimate D2E/DX2                !
 ! A20   A(6,9,13)             110.0572         estimate D2E/DX2                !
 ! A21   A(6,9,14)             111.0551         estimate D2E/DX2                !
 ! A22   A(12,9,13)            107.605          estimate D2E/DX2                !
 ! A23   A(12,9,14)            108.4771         estimate D2E/DX2                !
 ! A24   A(13,9,14)            108.0271         estimate D2E/DX2                !
 ! D1    D(3,1,2,6)            -65.9106         estimate D2E/DX2                !
 ! D2    D(3,1,2,7)            173.3885         estimate D2E/DX2                !
 ! D3    D(3,1,2,8)             57.1913         estimate D2E/DX2                !
 ! D4    D(4,1,2,6)            174.7623         estimate D2E/DX2                !
 ! D5    D(4,1,2,7)             54.0614         estimate D2E/DX2                !
 ! D6    D(4,1,2,8)            -62.1358         estimate D2E/DX2                !
 ! D7    D(5,1,2,6)             55.1896         estimate D2E/DX2                !
 ! D8    D(5,1,2,7)            -65.5112         estimate D2E/DX2                !
 ! D9    D(5,1,2,8)            178.2916         estimate D2E/DX2                !
 ! D10   D(1,2,6,9)             64.842          estimate D2E/DX2                !
 ! D11   D(1,2,6,10)           -57.9916         estimate D2E/DX2                !
 ! D12   D(1,2,6,11)          -174.4172         estimate D2E/DX2                !
 ! D13   D(7,2,6,9)           -174.4219         estimate D2E/DX2                !
 ! D14   D(7,2,6,10)            62.7445         estimate D2E/DX2                !
 ! D15   D(7,2,6,11)           -53.6811         estimate D2E/DX2                !
 ! D16   D(8,2,6,9)            -57.9856         estimate D2E/DX2                !
 ! D17   D(8,2,6,10)           179.1809         estimate D2E/DX2                !
 ! D18   D(8,2,6,11)            62.7553         estimate D2E/DX2                !
 ! D19   D(2,6,9,12)           -65.9147         estimate D2E/DX2                !
 ! D20   D(2,6,9,13)           174.7601         estimate D2E/DX2                !
 ! D21   D(2,6,9,14)            55.1846         estimate D2E/DX2                !
 ! D22   D(10,6,9,12)           57.1934         estimate D2E/DX2                !
 ! D23   D(10,6,9,13)          -62.1319         estimate D2E/DX2                !
 ! D24   D(10,6,9,14)          178.2927         estimate D2E/DX2                !
 ! D25   D(11,6,9,12)          173.3856         estimate D2E/DX2                !
 ! D26   D(11,6,9,13)           54.0603         estimate D2E/DX2                !
 ! D27   D(11,6,9,14)          -65.5152         estimate D2E/DX2                !
 --------------------------------------------------------------------------------
 Trust Radius=3.00D-01 FncErr=1.00D-07 GrdErr=1.00D-07
 Number of steps in this run=    100 maximum allowed number of steps=    100.
 GradGradGradGradGradGradGradGradGradGradGradGradGradGradGradGradGradGrad

                          Input orientation:                          
 ---------------------------------------------------------------------
 Center     Atomic      Atomic             Coordinates (Angstroms)
 Number     Number       Type             X           Y           Z
 ---------------------------------------------------------------------
      1          6           0        0.000000    0.000000    0.000000
      2          6           0        0.000000    0.000000    1.520940
      3          1           0        1.017900    0.000000   -0.400784
      4          1           0       -0.503698    0.896586   -0.375425
      5          1           0       -0.527626   -0.874648   -0.393217
      6          6           0        0.572444   -1.280352    2.129862
      7          1           0       -1.032565    0.119681    1.869905
      8          1           0        0.560254    0.869055    1.884963
      9          6           0        2.048412   -1.487907    1.827145
     10          1           0        0.002954   -2.148147    1.777253
     11          1           0        0.442032   -1.236540    3.217748
     12          1           0        2.218889   -1.655028    0.759562
     13          1           0        2.421818   -2.366177    2.363552
     14          1           0        2.639822   -0.622242    2.141521
 ---------------------------------------------------------------------
                    Distance matrix (angstroms):
                    1          2          3          4          5
     1  C    0.000000
     2  C    1.520940   0.000000
     3  H    1.093960   2.174660   0.000000
     4  H    1.094770   2.157262   1.766287   0.000000
     5  H    1.094540   2.169653   1.775871   1.771484   0.000000
     6  C    2.550158   1.528980   2.870872   3.489069   2.782208
     7  H    2.139406   1.096490   3.061823   2.434089   2.522969
     8  H    2.149937   1.096200   2.487838   2.498421   3.068239
     9  C    3.122230   2.550220   2.870452   4.129211   3.455730
    10  H    2.788041   2.163386   3.223119   3.763126   2.571819
    11  H    3.475389   2.145596   3.867096   4.284335   3.756364
    12  H    2.870457   2.870938   2.351148   3.900180   3.079162
    13  H    4.129210   3.489125   3.900171   5.167810   4.303912
    14  H    3.455714   2.782259   3.079145   4.303902   4.064644
                    6          7          8          9         10
     6  C    0.000000
     7  H    2.145629   0.000000
     8  H    2.163348   1.760358   0.000000
     9  C    1.520920   3.475426   2.788051   0.000000
    10  H    1.096230   2.494781   3.070129   2.149954   0.000000
    11  H    1.096550   2.414633   2.494759   2.139490   1.760353
    12  H    2.174601   3.867093   3.223134   1.093950   2.487816
    13  H    2.157269   4.284383   3.763136   1.094770   2.498436
    14  H    2.169630   3.756414   2.571846   1.094520   3.068248
                   11         12         13         14
    11  H    0.000000
    12  H    3.061867   0.000000
    13  H    2.434190   1.766266   0.000000
    14  H    2.523074   1.775850   1.771477   0.000000
 Stoichiometry    C4H10
 Framework group  C1[X(C4H10)]
 Deg. of freedom    36
 Full point group                 C1      NOp   1
 Largest Abelian subgroup         C1      NOp   1
 Largest concise Abelian subgroup C1      NOp   1
                         Standard orientation:                         
 ---------------------------------------------------------------------
 Center     Atomic      Atomic             Coordinates (Angstroms)
 Number     Number       Type             X           Y           Z
 ---------------------------------------------------------------------
      1          6           0       -1.555865   -0.556559    0.127705
      2          6           0       -0.698765    0.621114   -0.310158
      3          1           0       -1.151154   -1.504753   -0.238200
      4          1           0       -2.569456   -0.452614   -0.272731
      5          1           0       -1.626300   -0.607460    1.218790
      6          6           0        0.698730    0.621074    0.310154
      7          1           0       -1.207170    1.548919   -0.022071
      8          1           0       -0.621514    0.628471   -1.403607
      9          6           0        1.555900   -0.556519   -0.127717
     10          1           0        0.621501    0.628454    1.403635
     11          1           0        1.207058    1.549014    0.022138
     12          1           0        1.151222   -1.504710    0.238201
     13          1           0        2.569487   -0.452555    0.272726
     14          1           0        1.626326   -0.607427   -1.218782
 ---------------------------------------------------------------------
 Rotational constants (GHZ):     13.3118508      4.8235679      4.1128808
 Standard basis: CC-pVDZ (5D, 7F)
 There are   110 symmetry adapted cartesian basis functions of A   symmetry.
 There are   106 symmetry adapted basis functions of A   symmetry.
   106 basis functions,   202 primitive gaussians,   110 cartesian basis functions
    17 alpha electrons       17 beta electrons
       nuclear repulsion energy       132.9027145042 Hartrees.
 NAtoms=   14 NActive=   14 NUniq=   14 SFac= 1.00D+00 NAtFMM=   60 NAOKFM=F Big=F
 Integral buffers will be    131072 words long.
 Raffenetti 1 integral format.
 Two-electron integral symmetry is turned on.
 One-electron integrals computed using PRISM.
 NBasis=   106 RedAO= T EigKep=  4.80D-03  NBF=   106
 NBsUse=   106 1.00D-06 EigRej= -1.00D+00 NBFU=   106
 ExpMin= 1.22D-01 ExpMax= 6.67D+03 ExpMxC= 2.28D+02 IAcc=1 IRadAn=         1 AccDes= 0.00D+00
 Harris functional with IExCor=  205 and IRadAn=       1 diagonalized for initial guess.
 HarFok:  IExCor=  205 AccDes= 0.00D+00 IRadAn=         1 IDoV= 1 UseB2=F ITyADJ=14
 ICtDFT=  3500011 ScaDFX=  1.000000  1.000000  1.000000  1.000000
 FoFCou: FMM=F IPFlag=           0 FMFlag=      100000 FMFlg1=           0
         NFxFlg=           0 DoJE=T BraDBF=F KetDBF=T FulRan=T
         wScrn=  0.000000 ICntrl=     500 IOpCl=  0 I1Cent=   200000004 NGrid=           0
         NMat0=    1 NMatS0=      1 NMatT0=    0 NMatD0=    1 NMtDS0=    0 NMtDT0=    0
 Petite list used in FoFCou.
 Keep R1 ints in memory in canonical form, NReq=17075632.
 Requested convergence on RMS density matrix=1.00D-08 within 128 cycles.
 Requested convergence on MAX density matrix=1.00D-06.
 Requested convergence on             energy=1.00D-06.
 No special actions if energy rises.
 SCF Done:  E(RHF) =  -157.307925590     A.U. after   10 cycles
            NFock= 10  Conv=0.86D-08     -V/T= 2.0011

 **********************************************************************

            Population analysis using the SCF density.

 **********************************************************************

 Orbital symmetries:
       Occupied  (A) (A) (A) (A) (A) (A) (A) (A) (A) (A) (A) (A)
                 (A) (A) (A) (A) (A)
       Virtual   (A) (A) (A) (A) (A) (A) (A) (A) (A) (A) (A) (A)
                 (A) (A) (A) (A) (A) (A) (A) (A) (A) (A) (A) (A)
                 (A) (A) (A) (A) (A) (A) (A) (A) (A) (A) (A) (A)
                 (A) (A) (A) (A) (A) (A) (A) (A) (A) (A) (A) (A)
                 (A) (A) (A) (A) (A) (A) (A) (A) (A) (A) (A) (A)
                 (A) (A) (A) (A) (A) (A) (A) (A) (A) (A) (A) (A)
                 (A) (A) (A) (A) (A) (A) (A) (A) (A) (A) (A) (A)
                 (A) (A) (A) (A) (A)
 The electronic state is 1-A.
 Alpha  occ. eigenvalues --  -11.21915 -11.21856 -11.21541 -11.21541  -1.07234
 Alpha  occ. eigenvalues --   -0.97675  -0.87080  -0.77394  -0.62373  -0.61875
 Alpha  occ. eigenvalues --   -0.57406  -0.53036  -0.52984  -0.50284  -0.46271
 Alpha  occ. eigenvalues --   -0.45552  -0.45322
 Alpha virt. eigenvalues --    0.18112   0.21916   0.22058   0.22697   0.25857
 Alpha virt. eigenvalues --    0.27401   0.28495   0.28694   0.29213   0.31272
 Alpha virt. eigenvalues --    0.38714   0.39998   0.44162   0.58077   0.59201
 Alpha virt. eigenvalues --    0.61493   0.61869   0.62799   0.66541   0.72188
 Alpha virt. eigenvalues --    0.83333   0.85040   0.85272   0.88048   0.88726
 Alpha virt. eigenvalues --    0.89366   0.89916   0.91024   0.91048   0.91801
 Alpha virt. eigenvalues --    0.92404   0.93961   0.95678   0.97610   1.02118
 Alpha virt. eigenvalues --    1.12907   1.13493   1.18170   1.34896   1.37382
 Alpha virt. eigenvalues --    1.42858   1.42930   1.51702   1.58593   1.63325
 Alpha virt. eigenvalues --    1.66872   1.69310   1.70469   1.73897   1.86211
 Alpha virt. eigenvalues --    1.86407   1.88457   1.91407   1.91523   1.93777
 Alpha virt. eigenvalues --    1.94923   1.96131   1.97058   1.97194   1.99131
 Alpha virt. eigenvalues --    1.99422   2.01055   2.01757   2.05968   2.09547
 Alpha virt. eigenvalues --    2.14874   2.15111   2.28309   2.29179   2.32860
 Alpha virt. eigenvalues --    2.33723   2.38445   2.42923   2.50358   2.54214
 Alpha virt. eigenvalues --    2.57021   2.58987   2.62063   2.62248   2.76525
 Alpha virt. eigenvalues --    2.77291   2.80673   2.83610   2.84882   2.87761
 Alpha virt. eigenvalues --    2.97005   2.98100   3.05157   3.09162
          Condensed to atoms (all electrons):
               1          2          3          4          5          6
     1  C    4.534228   0.419016   0.410046   0.408928   0.408413  -0.066435
     2  C    0.419016   4.644833  -0.028465  -0.023717  -0.033008   0.426164
     3  H    0.410046  -0.028465   0.644856  -0.025828  -0.027501  -0.004660
     4  H    0.408928  -0.023717  -0.025828   0.642998  -0.025416   0.006124
     5  H    0.408413  -0.033008  -0.027501  -0.025416   0.648821  -0.004374
     6  C   -0.066435   0.426164  -0.004660   0.006124  -0.004374   4.644915
     7  H   -0.030573   0.404124   0.007580  -0.007030  -0.005365  -0.027400
     8  H   -0.032517   0.401654  -0.006967  -0.004214   0.007554  -0.030812
     9  C   -0.005643  -0.066421   0.001418  -0.000114  -0.000665   0.419014
    10  H   -0.006411  -0.030812  -0.000347  -0.000010   0.004052   0.401654
    11  H    0.006855  -0.027412  -0.000163  -0.000246   0.000054   0.404119
    12  H    0.001418  -0.004660  -0.001033  -0.000032   0.000415  -0.028468
    13  H   -0.000114   0.006123  -0.000032   0.000014  -0.000050  -0.023714
    14  H   -0.000665  -0.004373   0.000414  -0.000050   0.000048  -0.033008
               7          8          9         10         11         12
     1  C   -0.030573  -0.032517  -0.005643  -0.006411   0.006855   0.001418
     2  C    0.404124   0.401654  -0.066421  -0.030812  -0.027412  -0.004660
     3  H    0.007580  -0.006967   0.001418  -0.000347  -0.000163  -0.001033
     4  H   -0.007030  -0.004214  -0.000114  -0.000010  -0.000246  -0.000032
     5  H   -0.005365   0.007554  -0.000665   0.004052   0.000054   0.000415
     6  C   -0.027400  -0.030812   0.419014   0.401654   0.404119  -0.028468
     7  H    0.673932  -0.031328   0.006853  -0.005079  -0.006583  -0.000163
     8  H   -0.031328   0.674626  -0.006410   0.007712  -0.005079  -0.000347
     9  C    0.006853  -0.006410   4.534174  -0.032518  -0.030573   0.410045
    10  H   -0.005079   0.007712  -0.032518   0.674631  -0.031331  -0.006968
    11  H   -0.006583  -0.005079  -0.030573  -0.031331   0.673951   0.007581
    12  H   -0.000163  -0.000347   0.410045  -0.006968   0.007581   0.644863
    13  H   -0.000246  -0.000010   0.408932  -0.004214  -0.007030  -0.025828
    14  H    0.000054   0.004052   0.408414   0.007554  -0.005364  -0.027501
              13         14
     1  C   -0.000114  -0.000665
     2  C    0.006123  -0.004373
     3  H   -0.000032   0.000414
     4  H    0.000014  -0.000050
     5  H   -0.000050   0.000048
     6  C   -0.023714  -0.033008
     7  H   -0.000246   0.000054
     8  H   -0.000010   0.004052
     9  C    0.408932   0.408414
    10  H   -0.004214   0.007554
    11  H   -0.007030  -0.005364
    12  H   -0.025828  -0.027501
    13  H    0.642988  -0.025415
    14  H   -0.025415   0.648818
 Mulliken charges:
               1
     1  C   -0.046545
     2  C   -0.083046
     3  H    0.030680
     4  H    0.028593
     5  H    0.027023
     6  C   -0.083119
     7  H    0.021224
     8  H    0.022088
     9  C   -0.046506
    10  H    0.022088
    11  H    0.021222
    12  H    0.030678
    13  H    0.028598
    14  H    0.027022
 Sum of Mulliken charges =   0.00000
 Mulliken charges with hydrogens summed into heavy atoms:
               1
     1  C    0.039751
     2  C   -0.039735
     6  C   -0.039808
     9  C    0.039792
 Electronic spatial extent (au):  <R**2>=            378.0004
 Charge=              0.0000 electrons
 Dipole moment (field-independent basis, Debye):
    X=              0.0000    Y=              0.0704    Z=              0.0000  Tot=              0.0704
 Quadrupole moment (field-independent basis, Debye-Ang):
   XX=            -29.0613   YY=            -28.9635   ZZ=            -28.3189
   XY=             -0.0004   XZ=              0.0490   YZ=              0.0001
 Traceless Quadrupole moment (field-independent basis, Debye-Ang):
   XX=             -0.2801   YY=             -0.1823   ZZ=              0.4623
   XY=             -0.0004   XZ=              0.0490   YZ=              0.0001
 Octapole moment (field-independent basis, Debye-Ang**2):
  XXX=              0.0003  YYY=              0.2288  ZZZ=             -0.0003  XYY=             -0.0002
  XXY=              1.6247  XXZ=              0.0001  XZZ=              0.0000  YZZ=             -0.0972
  YYZ=              0.0001  XYZ=             -0.5342
 Hexadecapole moment (field-independent basis, Debye-Ang**3):
 XXXX=           -327.5425 YYYY=           -125.7419 ZZZZ=            -67.1779 XXXY=             -0.0023
 XXXZ=              3.8857 YYYX=             -0.0012 YYYZ=              0.0002 ZZZX=             -1.3054
 ZZZY=              0.0000 XXYY=            -78.8471 XXZZ=            -67.0362 YYZZ=            -34.0509
 XXYZ=              0.0001 YYXZ=             -0.3104 ZZXY=             -0.0003
 N-N= 1.329027145042D+02 E-N=-6.309228126719D+02  KE= 1.571282828829D+02
 Calling FoFJK, ICntrl=      2127 FMM=F ISym2X=0 I1Cent= 0 IOpClX= 0 NMat=1 NMatS=1 NMatT=0.
 ***** Axes restored to original set *****
 -------------------------------------------------------------------
 Center     Atomic                   Forces (Hartrees/Bohr)
 Number     Number              X              Y              Z
 -------------------------------------------------------------------
      1        6          -0.000164965    0.004726118   -0.003212654
      2        6          -0.004847525   -0.003503885    0.001084927
      3        1          -0.002180829   -0.000480708   -0.001044606
      4        1           0.000901546   -0.001704982   -0.001421477
      5        1           0.000728734    0.000725428   -0.000528112
      6        6           0.000321548    0.004114486    0.004507324
      7        1           0.001579016    0.001093294    0.000462433
      8        1          -0.000594394   -0.000987166    0.000950282
      9        6           0.002626687   -0.005076010    0.000159302
     10        1          -0.000673505    0.001184334    0.000629039
     11        1          -0.000889492   -0.001192523   -0.001325213
     12        1           0.001538999    0.000571532    0.001835388
     13        1           0.001370339    0.001386561   -0.001387837
     14        1           0.000283842   -0.000856479   -0.000708796
 -------------------------------------------------------------------
 Cartesian Forces:  Max     0.005076010 RMS     0.002060356

 GradGradGradGradGradGradGradGradGradGradGradGradGradGradGradGradGradGrad
 Berny optimization.
 FormGI is forming the generalized inverse of G from B-inverse, IUseBI=4.
 Internal  Forces:  Max     0.006210519 RMS     0.001896139
 Search for a local minimum.
 Step number   1 out of a maximum of  100
 All quantities printed in internal units (Hartrees-Bohrs-Radians)
 Mixed Optimization -- RFO/linear search
 Second derivative matrix not updated -- first step.
 ITU=  0
     Eigenvalues ---    0.00383   0.00489   0.00489   0.03519   0.03520
     Eigenvalues ---    0.04882   0.04882   0.05542   0.05542   0.05715
     Eigenvalues ---    0.05715   0.08493   0.08495   0.12315   0.12316
     Eigenvalues ---    0.16000   0.16000   0.16000   0.16000   0.16000
     Eigenvalues ---    0.16000   0.21937   0.21937   0.29518   0.30276
     Eigenvalues ---    0.30278   0.34067   0.34073   0.34102   0.34106
     Eigenvalues ---    0.34267   0.34267   0.34293   0.34295   0.34359
     Eigenvalues ---    0.34360
 RFO step:  Lambda=-1.21292193D-03 EMin= 3.82597595D-03
 Linear search not attempted -- first point.
 Iteration  1 RMS(Cart)=  0.03421772 RMS(Int)=  0.00026456
 Iteration  2 RMS(Cart)=  0.00038026 RMS(Int)=  0.00009525
 Iteration  3 RMS(Cart)=  0.00000008 RMS(Int)=  0.00009525
 Variable       Old X    -DE/DX   Delta X   Delta X   Delta X     New X
                                 (Linear)    (Quad)   (Total)
    R1        2.87416   0.00621   0.00000   0.02042   0.02042   2.89458
    R2        2.06728  -0.00165   0.00000  -0.00478  -0.00478   2.06251
    R3        2.06882  -0.00132   0.00000  -0.00385  -0.00385   2.06497
    R4        2.06838  -0.00074   0.00000  -0.00215  -0.00215   2.06623
    R5        2.88935   0.00308   0.00000   0.01039   0.01039   2.89975
    R6        2.07207  -0.00122   0.00000  -0.00357  -0.00357   2.06850
    R7        2.07152  -0.00077   0.00000  -0.00225  -0.00225   2.06927
    R8        2.87412   0.00621   0.00000   0.02043   0.02043   2.89455
    R9        2.07157  -0.00079   0.00000  -0.00231  -0.00231   2.06927
   R10        2.07218  -0.00126   0.00000  -0.00368  -0.00368   2.06850
   R11        2.06727  -0.00164   0.00000  -0.00475  -0.00475   2.06251
   R12        2.06882  -0.00132   0.00000  -0.00385  -0.00385   2.06496
   R13        2.06834  -0.00073   0.00000  -0.00211  -0.00211   2.06623
    A1        1.94589   0.00190   0.00000   0.01176   0.01168   1.95757
    A2        1.92083   0.00245   0.00000   0.01714   0.01704   1.93787
    A3        1.93826   0.00021   0.00000  -0.00068  -0.00067   1.93759
    A4        1.87808  -0.00182   0.00000  -0.00753  -0.00770   1.87038
    A5        1.89328  -0.00154   0.00000  -0.01318  -0.01316   1.88011
    A6        1.88541  -0.00139   0.00000  -0.00870  -0.00870   1.87671
    A7        1.98041   0.00540   0.00000   0.02916   0.02905   2.00946
    A8        1.89469  -0.00133   0.00000   0.00219   0.00199   1.89668
    A9        1.90930  -0.00082   0.00000  -0.00080  -0.00064   1.90866
   A10        1.89360  -0.00114   0.00000   0.00053   0.00023   1.89383
   A11        1.91800  -0.00263   0.00000  -0.01834  -0.01839   1.89961
   A12        1.86405   0.00025   0.00000  -0.01511  -0.01519   1.84886
   A13        1.98050   0.00538   0.00000   0.02905   0.02895   2.00945
   A14        1.91803  -0.00263   0.00000  -0.01836  -0.01841   1.89962
   A15        1.89349  -0.00112   0.00000   0.00066   0.00036   1.89385
   A16        1.90932  -0.00082   0.00000  -0.00081  -0.00065   1.90867
   A17        1.89476  -0.00133   0.00000   0.00212   0.00192   1.89668
   A18        1.86394   0.00025   0.00000  -0.01502  -0.01510   1.84884
   A19        1.94584   0.00190   0.00000   0.01180   0.01172   1.95757
   A20        1.92086   0.00244   0.00000   0.01708   0.01699   1.93785
   A21        1.93828   0.00021   0.00000  -0.00068  -0.00067   1.93760
   A22        1.87806  -0.00182   0.00000  -0.00751  -0.00768   1.87038
   A23        1.89328  -0.00155   0.00000  -0.01318  -0.01316   1.88012
   A24        1.88543  -0.00139   0.00000  -0.00871  -0.00871   1.87672
    D1       -1.15036   0.00084   0.00000   0.02086   0.02092  -1.12944
    D2        3.02620  -0.00028   0.00000  -0.00026  -0.00027   3.02593
    D3        0.99818   0.00061   0.00000   0.01698   0.01707   1.01525
    D4        3.05018   0.00030   0.00000   0.01150   0.01148   3.06165
    D5        0.94355  -0.00082   0.00000  -0.00962  -0.00972   0.93383
    D6       -1.08447   0.00008   0.00000   0.00763   0.00763  -1.07685
    D7        0.96324   0.00032   0.00000   0.01165   0.01166   0.97490
    D8       -1.14339  -0.00080   0.00000  -0.00947  -0.00953  -1.15292
    D9        3.11178   0.00009   0.00000   0.00777   0.00781   3.11958
   D10        1.13171  -0.00007   0.00000   0.00394   0.00377   1.13547
   D11       -1.01214  -0.00086   0.00000  -0.00189  -0.00189  -1.01404
   D12       -3.04415   0.00094   0.00000   0.02589   0.02581  -3.01835
   D13       -3.04424   0.00094   0.00000   0.02597   0.02588  -3.01836
   D14        1.09510   0.00015   0.00000   0.02014   0.02022   1.11532
   D15       -0.93691   0.00195   0.00000   0.04792   0.04792  -0.88899
   D16       -1.01204  -0.00087   0.00000  -0.00200  -0.00200  -1.01403
   D17        3.12730  -0.00166   0.00000  -0.00783  -0.00765   3.11964
   D18        1.09529   0.00014   0.00000   0.01996   0.02005   1.11533
   D19       -1.15043   0.00084   0.00000   0.02091   0.02097  -1.12945
   D20        3.05014   0.00031   0.00000   0.01154   0.01151   3.06165
   D21        0.96315   0.00033   0.00000   0.01173   0.01174   0.97489
   D22        0.99821   0.00061   0.00000   0.01693   0.01702   1.01523
   D23       -1.08441   0.00007   0.00000   0.00756   0.00756  -1.07685
   D24        3.11179   0.00009   0.00000   0.00775   0.00778   3.11958
   D25        3.02615  -0.00028   0.00000  -0.00025  -0.00026   3.02589
   D26        0.94353  -0.00082   0.00000  -0.00963  -0.00972   0.93381
   D27       -1.14346  -0.00080   0.00000  -0.00944  -0.00950  -1.15295
         Item               Value     Threshold  Converged?
 Maximum Force            0.006211     0.000450     NO 
 RMS     Force            0.001896     0.000300     NO 
 Maximum Displacement     0.100477     0.001800     NO 
 RMS     Displacement     0.034265     0.001200     NO 
 Predicted change in Energy=-6.154436D-04
 GradGradGradGradGradGradGradGradGradGradGradGradGradGradGradGradGradGrad

                          Input orientation:                          
 ---------------------------------------------------------------------
 Center     Atomic      Atomic             Coordinates (Angstroms)
 Number     Number       Type             X           Y           Z
 ---------------------------------------------------------------------
      1          6           0       -0.027982    0.020740   -0.021521
      2          6           0       -0.005094   -0.004386    1.509847
      3          1           0        0.976508    0.017104   -0.448386
      4          1           0       -0.532387    0.916690   -0.391542
      5          1           0       -0.562097   -0.846138   -0.419978
      6          6           0        0.584750   -1.277012    2.132052
      7          1           0       -1.028490    0.120103    1.877699
      8          1           0        0.554342    0.861630    1.878752
      9          6           0        2.072975   -1.508160    1.852848
     10          1           0        0.011063   -2.141027    1.780762
     11          1           0        0.433631   -1.236384    3.215413
     12          1           0        2.272060   -1.673772    0.792579
     13          1           0        2.441350   -2.384980    2.390945
     14          1           0        2.670009   -0.650126    2.173557
 ---------------------------------------------------------------------
                    Distance matrix (angstroms):
                    1          2          3          4          5
     1  C    0.000000
     2  C    1.531745   0.000000
     3  H    1.091433   2.190588   0.000000
     4  H    1.092733   2.177544   1.757626   0.000000
     5  H    1.093400   2.177848   1.764454   1.763307   0.000000
     6  C    2.587948   1.534481   2.913223   3.525457   2.830860
     7  H    2.148937   1.094601   3.072669   2.455632   2.535837
     8  H    2.158063   1.095008   2.511378   2.517588   3.073608
     9  C    3.203875   2.587926   2.970580   4.207742   3.542262
    10  H    2.814780   2.153809   3.249417   3.789971   2.616966
    11  H    3.503026   2.149245   3.910162   4.310342   3.789438
    12  H    2.970577   2.913203   2.465261   3.997194   3.191821
    13  H    4.207741   3.525429   3.997195   5.242745   4.392041
    14  H    3.542257   2.830842   3.191821   4.392036   4.148657
                    6          7          8          9         10
     6  C    0.000000
     7  H    2.149225   0.000000
     8  H    2.153804   1.747918   0.000000
     9  C    1.531731   3.502991   2.814751   0.000000
    10  H    1.095008   2.490538   3.052983   2.158054   0.000000
    11  H    1.094605   2.401527   2.490561   2.148929   1.747904
    12  H    2.190575   3.910128   3.249399   1.091435   2.511362
    13  H    2.177518   4.310296   3.789936   1.092731   2.517565
    14  H    2.177846   3.789416   2.616937   1.093401   3.073608
                   11         12         13         14
    11  H    0.000000
    12  H    3.072662   0.000000
    13  H    2.455597   1.757626   0.000000
    14  H    2.535853   1.764458   1.763309   0.000000
 Stoichiometry    C4H10
 Framework group  C1[X(C4H10)]
 Deg. of freedom    36
 Full point group                 C1      NOp   1
 Largest Abelian subgroup         C1      NOp   1
 Largest concise Abelian subgroup C1      NOp   1
                         Standard orientation:                         
 ---------------------------------------------------------------------
 Center     Atomic      Atomic             Coordinates (Angstroms)
 Number     Number       Type             X           Y           Z
 ---------------------------------------------------------------------
      1          6           0       -1.597329   -0.552926    0.121543
      2          6           0       -0.704182    0.616238   -0.304589
      3          1           0       -1.211846   -1.513245   -0.225468
      4          1           0       -2.605859   -0.444391   -0.284846
      5          1           0       -1.684657   -0.603116    1.210294
      6          6           0        0.704200    0.616234    0.304582
      7          1           0       -1.200290    1.553361   -0.032873
      8          1           0       -0.617338    0.627603   -1.396089
      9          6           0        1.597311   -0.552941   -0.121541
     10          1           0        0.617362    0.627616    1.396083
     11          1           0        1.200336    1.553350    0.032879
     12          1           0        1.211817   -1.513247    0.225499
     13          1           0        2.605841   -0.444405    0.284844
     14          1           0        1.684633   -0.603159   -1.210293
 ---------------------------------------------------------------------
 Rotational constants (GHZ):     13.4494824      4.6405059      3.9786559
 Standard basis: CC-pVDZ (5D, 7F)
 There are   110 symmetry adapted cartesian basis functions of A   symmetry.
 There are   106 symmetry adapted basis functions of A   symmetry.
   106 basis functions,   202 primitive gaussians,   110 cartesian basis functions
    17 alpha electrons       17 beta electrons
       nuclear repulsion energy       131.9494209882 Hartrees.
 NAtoms=   14 NActive=   14 NUniq=   14 SFac= 1.00D+00 NAtFMM=   60 NAOKFM=F Big=F
 Integral buffers will be    131072 words long.
 Raffenetti 1 integral format.
 Two-electron integral symmetry is turned on.
 One-electron integrals computed using PRISM.
 NBasis=   106 RedAO= T EigKep=  5.00D-03  NBF=   106
 NBsUse=   106 1.00D-06 EigRej= -1.00D+00 NBFU=   106
 Initial guess from the checkpoint file:  "/blue/chm6586/le.chen/hw2/Gau-127912.chk"
 B after Tr=     0.000000    0.000000    0.000000
         Rot=    0.999998    0.000008    0.002118    0.000010 Ang=   0.24 deg.
 ExpMin= 1.22D-01 ExpMax= 6.67D+03 ExpMxC= 2.28D+02 IAcc=1 IRadAn=         1 AccDes= 0.00D+00
 Harris functional with IExCor=  205 and IRadAn=       1 diagonalized for initial guess.
 HarFok:  IExCor=  205 AccDes= 0.00D+00 IRadAn=         1 IDoV= 1 UseB2=F ITyADJ=14
 ICtDFT=  3500011 ScaDFX=  1.000000  1.000000  1.000000  1.000000
 FoFCou: FMM=F IPFlag=           0 FMFlag=      100000 FMFlg1=           0
         NFxFlg=           0 DoJE=T BraDBF=F KetDBF=T FulRan=T
         wScrn=  0.000000 ICntrl=     500 IOpCl=  0 I1Cent=   200000004 NGrid=           0
         NMat0=    1 NMatS0=      1 NMatT0=    0 NMatD0=    1 NMtDS0=    0 NMtDT0=    0
 Petite list used in FoFCou.
 Keep R1 ints in memory in canonical form, NReq=17075408.
 Requested convergence on RMS density matrix=1.00D-08 within 128 cycles.
 Requested convergence on MAX density matrix=1.00D-06.
 Requested convergence on             energy=1.00D-06.
 No special actions if energy rises.
 SCF Done:  E(RHF) =  -157.308307913     A.U. after    9 cycles
            NFock=  9  Conv=0.24D-08     -V/T= 2.0014
 Calling FoFJK, ICntrl=      2127 FMM=F ISym2X=0 I1Cent= 0 IOpClX= 0 NMat=1 NMatS=1 NMatT=0.
 ***** Axes restored to original set *****
 -------------------------------------------------------------------
 Center     Atomic                   Forces (Hartrees/Bohr)
 Number     Number              X              Y              Z
 -------------------------------------------------------------------
      1        6           0.000103844   -0.000544682    0.001855088
      2        6           0.001329263    0.000045935   -0.000691305
      3        1           0.000758070   -0.000405330    0.000152239
      4        1          -0.000103833    0.000121984    0.000790116
      5        1          -0.000194415   -0.000400326   -0.000139131
      6        6           0.000375767   -0.000286175   -0.001421457
      7        1           0.000120889   -0.000553190    0.000045499
      8        1           0.000109937    0.000902976   -0.000194695
      9        6          -0.001756286    0.000773818    0.000192214
     10        1           0.000066074   -0.000927446   -0.000024296
     11        1          -0.000008819    0.000541441   -0.000186257
     12        1          -0.000265289    0.000336658   -0.000759183
     13        1          -0.000755157   -0.000001716    0.000274855
     14        1           0.000219956    0.000396054    0.000106314
 -------------------------------------------------------------------
 Cartesian Forces:  Max     0.001855088 RMS     0.000647205

 GradGradGradGradGradGradGradGradGradGradGradGradGradGradGradGradGradGrad
 Berny optimization.
 Using GEDIIS/GDIIS optimizer.
 FormGI is forming the generalized inverse of G from B-inverse, IUseBI=4.
 Internal  Forces:  Max     0.002686230 RMS     0.000789825
 Search for a local minimum.
 Step number   2 out of a maximum of  100
 All quantities printed in internal units (Hartrees-Bohrs-Radians)
 Mixed Optimization -- En-DIIS/RFO-DIIS
 Update second derivatives using D2CorX and points    1    2
 DE= -3.82D-04 DEPred=-6.15D-04 R= 6.21D-01
 TightC=F SS=  1.41D+00  RLast= 1.12D-01 DXNew= 5.0454D-01 3.3522D-01
 Trust test= 6.21D-01 RLast= 1.12D-01 DXMaxT set to 3.35D-01
 ITU=  1  0
 Use linear search instead of GDIIS.
     Eigenvalues ---    0.00385   0.00485   0.00489   0.03350   0.03384
     Eigenvalues ---    0.04825   0.04941   0.05435   0.05468   0.05596
     Eigenvalues ---    0.05596   0.08776   0.08795   0.12527   0.12670
     Eigenvalues ---    0.15892   0.16000   0.16000   0.16000   0.16000
     Eigenvalues ---    0.16560   0.21941   0.23638   0.29609   0.30277
     Eigenvalues ---    0.33419   0.33916   0.34070   0.34104   0.34184
     Eigenvalues ---    0.34220   0.34267   0.34294   0.34317   0.34360
     Eigenvalues ---    0.37282
 RFO step:  Lambda=-2.48112201D-05 EMin= 3.84992577D-03
 Quartic linear search produced a step of -0.26762.
 Iteration  1 RMS(Cart)=  0.01184928 RMS(Int)=  0.00003871
 Iteration  2 RMS(Cart)=  0.00004392 RMS(Int)=  0.00002139
 Iteration  3 RMS(Cart)=  0.00000000 RMS(Int)=  0.00002139
 Variable       Old X    -DE/DX   Delta X   Delta X   Delta X     New X
                                 (Linear)    (Quad)   (Total)
    R1        2.89458  -0.00269  -0.00546  -0.00067  -0.00614   2.88844
    R2        2.06251   0.00064   0.00128   0.00000   0.00128   2.06379
    R3        2.06497  -0.00012   0.00103  -0.00135  -0.00032   2.06464
    R4        2.06623   0.00046   0.00058   0.00037   0.00095   2.06718
    R5        2.89975  -0.00224  -0.00278  -0.00260  -0.00538   2.89436
    R6        2.06850  -0.00016   0.00096  -0.00136  -0.00041   2.06809
    R7        2.06927   0.00070   0.00060   0.00087   0.00147   2.07074
    R8        2.89455  -0.00268  -0.00547  -0.00065  -0.00612   2.88844
    R9        2.06927   0.00070   0.00062   0.00085   0.00147   2.07074
   R10        2.06850  -0.00016   0.00098  -0.00140  -0.00042   2.06809
   R11        2.06251   0.00064   0.00127   0.00000   0.00127   2.06379
   R12        2.06496  -0.00012   0.00103  -0.00135  -0.00032   2.06464
   R13        2.06623   0.00046   0.00057   0.00038   0.00095   2.06718
    A1        1.95757  -0.00044  -0.00313   0.00124  -0.00186   1.95570
    A2        1.93787  -0.00100  -0.00456   0.00027  -0.00426   1.93360
    A3        1.93759   0.00021   0.00018   0.00075   0.00093   1.93852
    A4        1.87038   0.00078   0.00206   0.00139   0.00349   1.87387
    A5        1.88011   0.00011   0.00352  -0.00332   0.00020   1.88031
    A6        1.87671   0.00042   0.00233  -0.00048   0.00185   1.87856
    A7        2.00946  -0.00204  -0.00777   0.00048  -0.00727   2.00219
    A8        1.89668   0.00085  -0.00053   0.00229   0.00180   1.89847
    A9        1.90866   0.00018   0.00017  -0.00047  -0.00033   1.90833
   A10        1.89383   0.00021  -0.00006  -0.00144  -0.00143   1.89240
   A11        1.89961   0.00115   0.00492   0.00067   0.00560   1.90522
   A12        1.84886  -0.00022   0.00407  -0.00173   0.00235   1.85122
   A13        2.00945  -0.00204  -0.00775   0.00047  -0.00725   2.00219
   A14        1.89962   0.00115   0.00493   0.00066   0.00560   1.90522
   A15        1.89385   0.00021  -0.00010  -0.00143  -0.00146   1.89239
   A16        1.90867   0.00018   0.00017  -0.00048  -0.00034   1.90833
   A17        1.89668   0.00085  -0.00051   0.00227   0.00180   1.89848
   A18        1.84884  -0.00022   0.00404  -0.00169   0.00237   1.85121
   A19        1.95757  -0.00044  -0.00314   0.00126  -0.00186   1.95570
   A20        1.93785  -0.00100  -0.00455   0.00028  -0.00424   1.93361
   A21        1.93760   0.00021   0.00018   0.00074   0.00092   1.93852
   A22        1.87038   0.00078   0.00206   0.00139   0.00349   1.87387
   A23        1.88012   0.00011   0.00352  -0.00332   0.00020   1.88031
   A24        1.87672   0.00042   0.00233  -0.00049   0.00184   1.87856
    D1       -1.12944  -0.00015  -0.00560   0.01238   0.00676  -1.12267
    D2        3.02593   0.00034   0.00007   0.01218   0.01225   3.03818
    D3        1.01525   0.00004  -0.00457   0.01324   0.00865   1.02389
    D4        3.06165  -0.00016  -0.00307   0.00958   0.00651   3.06817
    D5        0.93383   0.00033   0.00260   0.00938   0.01200   0.94584
    D6       -1.07685   0.00003  -0.00204   0.01044   0.00840  -1.06845
    D7        0.97490  -0.00017  -0.00312   0.00951   0.00639   0.98129
    D8       -1.15292   0.00032   0.00255   0.00931   0.01188  -1.14104
    D9        3.11958   0.00002  -0.00209   0.01037   0.00827   3.12785
   D10        1.13547  -0.00015  -0.00101  -0.00657  -0.00755   1.12792
   D11       -1.01404   0.00017   0.00051  -0.00679  -0.00629  -1.02033
   D12       -3.01835  -0.00029  -0.00691  -0.00438  -0.01127  -3.02962
   D13       -3.01836  -0.00029  -0.00693  -0.00436  -0.01126  -3.02962
   D14        1.11532   0.00002  -0.00541  -0.00458  -0.01000   1.10531
   D15       -0.88899  -0.00043  -0.01282  -0.00217  -0.01499  -0.90398
   D16       -1.01403   0.00017   0.00053  -0.00682  -0.00629  -1.02032
   D17        3.11964   0.00048   0.00205  -0.00704  -0.00503   3.11462
   D18        1.11533   0.00003  -0.00536  -0.00463  -0.01001   1.10533
   D19       -1.12945  -0.00015  -0.00561   0.01240   0.00676  -1.12269
   D20        3.06165  -0.00016  -0.00308   0.00958   0.00650   3.06815
   D21        0.97489  -0.00017  -0.00314   0.00953   0.00638   0.98127
   D22        1.01523   0.00004  -0.00455   0.01323   0.00865   1.02388
   D23       -1.07685   0.00003  -0.00202   0.01041   0.00839  -1.06846
   D24        3.11958   0.00002  -0.00208   0.01036   0.00827   3.12784
   D25        3.02589   0.00034   0.00007   0.01220   0.01228   3.03816
   D26        0.93381   0.00033   0.00260   0.00939   0.01202   0.94582
   D27       -1.15295   0.00032   0.00254   0.00933   0.01189  -1.14106
         Item               Value     Threshold  Converged?
 Maximum Force            0.002686     0.000450     NO 
 RMS     Force            0.000790     0.000300     NO 
 Maximum Displacement     0.031020     0.001800     NO 
 RMS     Displacement     0.011863     0.001200     NO 
 Predicted change in Energy=-6.832941D-05
 GradGradGradGradGradGradGradGradGradGradGradGradGradGradGradGradGradGrad

                          Input orientation:                          
 ---------------------------------------------------------------------
 Center     Atomic      Atomic             Coordinates (Angstroms)
 Number     Number       Type             X           Y           Z
 ---------------------------------------------------------------------
      1          6           0       -0.018712    0.014015   -0.015153
      2          6           0       -0.005503   -0.004665    1.513173
      3          1           0        0.989766    0.002099   -0.434118
      4          1           0       -0.515972    0.912713   -0.387666
      5          1           0       -0.555631   -0.851406   -0.414386
      6          6           0        0.581637   -1.276237    2.133063
      7          1           0       -1.031095    0.115200    1.875763
      8          1           0        0.550102    0.864863    1.881921
      9          6           0        2.065557   -1.501705    1.844199
     10          1           0        0.008536   -2.143305    1.785935
     11          1           0        0.436604   -1.231511    3.216873
     12          1           0        2.257043   -1.658525    0.780505
     13          1           0        2.434526   -2.382355    2.375243
     14          1           0        2.663777   -0.644897    2.167674
 ---------------------------------------------------------------------
                    Distance matrix (angstroms):
                    1          2          3          4          5
     1  C    0.000000
     2  C    1.528497   0.000000
     3  H    1.092109   2.186905   0.000000
     4  H    1.092561   2.171485   1.760290   0.000000
     5  H    1.093903   2.176027   1.765535   1.764767   0.000000
     6  C    2.576821   1.531631   2.896746   3.514303   2.821942
     7  H    2.147259   1.094385   3.071193   2.454483   2.530845
     8  H    2.155546   1.095788   2.510320   2.507953   3.072662
     9  C    3.177857   2.576819   2.934192   4.180302   3.520613
    10  H    2.810461   2.156010   3.239477   3.786673   2.613178
    11  H    3.493514   2.145507   3.893266   4.300906   3.783523
    12  H    2.934199   2.896752   2.416397   3.957966   3.160750
    13  H    4.180306   3.514301   3.957962   5.215033   4.366562
    14  H    3.520603   2.821937   3.160734   4.366544   4.132102
                    6          7          8          9         10
     6  C    0.000000
     7  H    2.145508   0.000000
     8  H    2.156009   1.749919   0.000000
     9  C    1.528495   3.493513   2.810458   0.000000
    10  H    1.095788   2.487920   3.058036   2.155547   0.000000
    11  H    1.094385   2.401322   2.487923   2.147260   1.749913
    12  H    2.186903   3.893269   3.239483   1.092110   2.510316
    13  H    2.171484   4.300905   3.786666   1.092561   2.507958
    14  H    2.176027   3.783522   2.613169   1.093903   3.072663
                   11         12         13         14
    11  H    0.000000
    12  H    3.071193   0.000000
    13  H    2.454480   1.760290   0.000000
    14  H    2.530856   1.765534   1.764767   0.000000
 Stoichiometry    C4H10
 Framework group  C1[X(C4H10)]
 Deg. of freedom    36
 Full point group                 C1      NOp   1
 Largest Abelian subgroup         C1      NOp   1
 Largest concise Abelian subgroup C1      NOp   1
                         Standard orientation:                         
 ---------------------------------------------------------------------
 Center     Atomic      Atomic             Coordinates (Angstroms)
 Number     Number       Type             X           Y           Z
 ---------------------------------------------------------------------
      1          6           0       -1.584198   -0.554800    0.122522
      2          6           0       -0.702705    0.618650   -0.304432
      3          1           0       -1.187608   -1.512227   -0.222080
      4          1           0       -2.591580   -0.452435   -0.287835
      5          1           0       -1.673445   -0.603709    1.211681
      6          6           0        0.702706    0.618649    0.304430
      7          1           0       -1.200383    1.552663   -0.025837
      8          1           0       -0.621292    0.632607   -1.397102
      9          6           0        1.584197   -0.554800   -0.122521
     10          1           0        0.621293    0.632613    1.397100
     11          1           0        1.200383    1.552664    0.025839
     12          1           0        1.187614   -1.512226    0.222096
     13          1           0        2.591584   -0.452429    0.287823
     14          1           0        1.673432   -0.603723   -1.211680
 ---------------------------------------------------------------------
 Rotational constants (GHZ):     13.3943734      4.6995787      4.0180513
 Standard basis: CC-pVDZ (5D, 7F)
 There are   110 symmetry adapted cartesian basis functions of A   symmetry.
 There are   106 symmetry adapted basis functions of A   symmetry.
   106 basis functions,   202 primitive gaussians,   110 cartesian basis functions
    17 alpha electrons       17 beta electrons
       nuclear repulsion energy       132.2508908688 Hartrees.
 NAtoms=   14 NActive=   14 NUniq=   14 SFac= 1.00D+00 NAtFMM=   60 NAOKFM=F Big=F
 Integral buffers will be    131072 words long.
 Raffenetti 1 integral format.
 Two-electron integral symmetry is turned on.
 One-electron integrals computed using PRISM.
 NBasis=   106 RedAO= T EigKep=  4.93D-03  NBF=   106
 NBsUse=   106 1.00D-06 EigRej= -1.00D+00 NBFU=   106
 Initial guess from the checkpoint file:  "/blue/chm6586/le.chen/hw2/Gau-127912.chk"
 B after Tr=     0.000000    0.000000    0.000000
         Rot=    1.000000   -0.000002   -0.000468   -0.000003 Ang=  -0.05 deg.
 ExpMin= 1.22D-01 ExpMax= 6.67D+03 ExpMxC= 2.28D+02 IAcc=1 IRadAn=         1 AccDes= 0.00D+00
 Harris functional with IExCor=  205 and IRadAn=       1 diagonalized for initial guess.
 HarFok:  IExCor=  205 AccDes= 0.00D+00 IRadAn=         1 IDoV= 1 UseB2=F ITyADJ=14
 ICtDFT=  3500011 ScaDFX=  1.000000  1.000000  1.000000  1.000000
 FoFCou: FMM=F IPFlag=           0 FMFlag=      100000 FMFlg1=           0
         NFxFlg=           0 DoJE=T BraDBF=F KetDBF=T FulRan=T
         wScrn=  0.000000 ICntrl=     500 IOpCl=  0 I1Cent=   200000004 NGrid=           0
         NMat0=    1 NMatS0=      1 NMatT0=    0 NMatD0=    1 NMtDS0=    0 NMtDT0=    0
 Petite list used in FoFCou.
 Keep R1 ints in memory in canonical form, NReq=17075464.
 Requested convergence on RMS density matrix=1.00D-08 within 128 cycles.
 Requested convergence on MAX density matrix=1.00D-06.
 Requested convergence on             energy=1.00D-06.
 No special actions if energy rises.
 SCF Done:  E(RHF) =  -157.308380070     A.U. after    7 cycles
            NFock=  7  Conv=0.95D-08     -V/T= 2.0013
 Calling FoFJK, ICntrl=      2127 FMM=F ISym2X=0 I1Cent= 0 IOpClX= 0 NMat=1 NMatS=1 NMatT=0.
 ***** Axes restored to original set *****
 -------------------------------------------------------------------
 Center     Atomic                   Forces (Hartrees/Bohr)
 Number     Number              X              Y              Z
 -------------------------------------------------------------------
      1        6          -0.000087158    0.000110564    0.000291530
      2        6           0.000170420   -0.000156310   -0.000331373
      3        1           0.000009333   -0.000074533    0.000034223
      4        1           0.000006506    0.000044805    0.000012450
      5        1          -0.000048568   -0.000053582   -0.000043259
      6        6           0.000299894    0.000089735   -0.000251711
      7        1          -0.000062242    0.000023422    0.000003589
      8        1          -0.000031436    0.000092777   -0.000000829
      9        6          -0.000274883   -0.000059821    0.000156859
     10        1          -0.000002318   -0.000087996    0.000042230
     11        1           0.000008010   -0.000015160    0.000064614
     12        1          -0.000027114    0.000077146   -0.000012017
     13        1          -0.000018478   -0.000043165    0.000002340
     14        1           0.000058035    0.000052116    0.000031354
 -------------------------------------------------------------------
 Cartesian Forces:  Max     0.000331373 RMS     0.000118868

 GradGradGradGradGradGradGradGradGradGradGradGradGradGradGradGradGradGrad
 Berny optimization.
 Using GEDIIS/GDIIS optimizer.
 FormGI is forming the generalized inverse of G from B-inverse, IUseBI=4.
 Internal  Forces:  Max     0.000293542 RMS     0.000066907
 Search for a local minimum.
 Step number   3 out of a maximum of  100
 All quantities printed in internal units (Hartrees-Bohrs-Radians)
 Mixed Optimization -- En-DIIS/RFO-DIIS
 Swapping is turned off.
 Update second derivatives using D2CorX and points    1    2    3
 DE= -7.22D-05 DEPred=-6.83D-05 R= 1.06D+00
 TightC=F SS=  1.41D+00  RLast= 5.27D-02 DXNew= 5.6377D-01 1.5810D-01
 Trust test= 1.06D+00 RLast= 5.27D-02 DXMaxT set to 3.35D-01
 ITU=  1  1  0
     Eigenvalues ---    0.00390   0.00458   0.00489   0.03389   0.03394
     Eigenvalues ---    0.04837   0.04956   0.05444   0.05484   0.05616
     Eigenvalues ---    0.05617   0.08691   0.08723   0.12477   0.12716
     Eigenvalues ---    0.15892   0.15997   0.16000   0.16000   0.16000
     Eigenvalues ---    0.16422   0.21937   0.24303   0.29769   0.30277
     Eigenvalues ---    0.33025   0.34024   0.34070   0.34104   0.34131
     Eigenvalues ---    0.34218   0.34267   0.34281   0.34294   0.34360
     Eigenvalues ---    0.36163
 En-DIIS/RFO-DIIS IScMMF=        0 using points:     3    2
 RFO step:  Lambda=-8.14556063D-07.
 DidBck=F Rises=F RFO-DIIS coefs:    1.03053   -0.03053
 Iteration  1 RMS(Cart)=  0.00551456 RMS(Int)=  0.00001610
 Iteration  2 RMS(Cart)=  0.00001792 RMS(Int)=  0.00000015
 Iteration  3 RMS(Cart)=  0.00000000 RMS(Int)=  0.00000015
 Variable       Old X    -DE/DX   Delta X   Delta X   Delta X     New X
                                 (Linear)    (Quad)   (Total)
    R1        2.88844  -0.00029  -0.00019  -0.00088  -0.00107   2.88737
    R2        2.06379   0.00000   0.00004  -0.00004   0.00000   2.06378
    R3        2.06464   0.00003  -0.00001   0.00006   0.00005   2.06470
    R4        2.06718   0.00008   0.00003   0.00024   0.00027   2.06744
    R5        2.89436   0.00002  -0.00016   0.00013  -0.00003   2.89433
    R6        2.06809   0.00006  -0.00001   0.00017   0.00015   2.06824
    R7        2.07074   0.00006   0.00004   0.00016   0.00021   2.07095
    R8        2.88844  -0.00029  -0.00019  -0.00088  -0.00106   2.88737
    R9        2.07074   0.00006   0.00004   0.00016   0.00021   2.07095
   R10        2.06809   0.00006  -0.00001   0.00017   0.00015   2.06824
   R11        2.06379   0.00000   0.00004  -0.00004   0.00000   2.06378
   R12        2.06464   0.00003  -0.00001   0.00006   0.00005   2.06470
   R13        2.06718   0.00008   0.00003   0.00024   0.00026   2.06744
    A1        1.95570  -0.00005  -0.00006  -0.00034  -0.00040   1.95530
    A2        1.93360  -0.00002  -0.00013   0.00006  -0.00007   1.93353
    A3        1.93852   0.00003   0.00003   0.00017   0.00020   1.93872
    A4        1.87387   0.00005   0.00011   0.00030   0.00040   1.87427
    A5        1.88031  -0.00001   0.00001  -0.00028  -0.00028   1.88004
    A6        1.87856   0.00001   0.00006   0.00011   0.00017   1.87873
    A7        2.00219   0.00011  -0.00022   0.00084   0.00062   2.00281
    A8        1.89847  -0.00008   0.00005  -0.00083  -0.00078   1.89770
    A9        1.90833  -0.00003  -0.00001   0.00010   0.00009   1.90842
   A10        1.89240   0.00000  -0.00004   0.00001  -0.00003   1.89236
   A11        1.90522  -0.00001   0.00017   0.00030   0.00047   1.90569
   A12        1.85122   0.00000   0.00007  -0.00053  -0.00046   1.85076
   A13        2.00219   0.00011  -0.00022   0.00084   0.00061   2.00281
   A14        1.90522  -0.00001   0.00017   0.00030   0.00047   1.90568
   A15        1.89239   0.00000  -0.00004   0.00001  -0.00003   1.89236
   A16        1.90833  -0.00003  -0.00001   0.00010   0.00009   1.90842
   A17        1.89848  -0.00008   0.00005  -0.00084  -0.00078   1.89770
   A18        1.85121   0.00000   0.00007  -0.00052  -0.00045   1.85076
   A19        1.95570  -0.00005  -0.00006  -0.00034  -0.00040   1.95530
   A20        1.93361  -0.00002  -0.00013   0.00006  -0.00007   1.93353
   A21        1.93852   0.00003   0.00003   0.00017   0.00020   1.93872
   A22        1.87387   0.00005   0.00011   0.00030   0.00040   1.87427
   A23        1.88031  -0.00001   0.00001  -0.00028  -0.00028   1.88004
   A24        1.87856   0.00001   0.00006   0.00011   0.00017   1.87873
    D1       -1.12267   0.00002   0.00021   0.00503   0.00523  -1.11744
    D2        3.03818   0.00001   0.00037   0.00506   0.00544   3.04362
    D3        1.02389   0.00007   0.00026   0.00610   0.00636   1.03026
    D4        3.06817   0.00002   0.00020   0.00484   0.00504   3.07321
    D5        0.94584   0.00000   0.00037   0.00488   0.00524   0.95108
    D6       -1.06845   0.00006   0.00026   0.00591   0.00617  -1.06228
    D7        0.98129   0.00000   0.00020   0.00455   0.00474   0.98603
    D8       -1.14104  -0.00001   0.00036   0.00458   0.00495  -1.13609
    D9        3.12785   0.00005   0.00025   0.00562   0.00587   3.13373
   D10        1.12792   0.00007  -0.00023   0.00736   0.00713   1.13505
   D11       -1.02033   0.00003  -0.00019   0.00641   0.00621  -1.01411
   D12       -3.02962   0.00004  -0.00034   0.00686   0.00651  -3.02311
   D13       -3.02962   0.00004  -0.00034   0.00686   0.00652  -3.02311
   D14        1.10531   0.00000  -0.00031   0.00591   0.00560   1.11092
   D15       -0.90398   0.00001  -0.00046   0.00636   0.00590  -0.89808
   D16       -1.02032   0.00003  -0.00019   0.00640   0.00621  -1.01411
   D17        3.11462   0.00000  -0.00015   0.00544   0.00529   3.11991
   D18        1.10533   0.00000  -0.00031   0.00590   0.00559   1.11092
   D19       -1.12269   0.00002   0.00021   0.00503   0.00524  -1.11745
   D20        3.06815   0.00002   0.00020   0.00485   0.00505   3.07320
   D21        0.98127   0.00000   0.00019   0.00456   0.00475   0.98602
   D22        1.02388   0.00007   0.00026   0.00610   0.00637   1.03025
   D23       -1.06846   0.00006   0.00026   0.00591   0.00617  -1.06229
   D24        3.12784   0.00005   0.00025   0.00562   0.00587   3.13372
   D25        3.03816   0.00001   0.00037   0.00507   0.00545   3.04361
   D26        0.94582   0.00000   0.00037   0.00489   0.00525   0.95107
   D27       -1.14106  -0.00001   0.00036   0.00459   0.00496  -1.13610
         Item               Value     Threshold  Converged?
 Maximum Force            0.000294     0.000450     YES
 RMS     Force            0.000067     0.000300     YES
 Maximum Displacement     0.019842     0.001800     NO 
 RMS     Displacement     0.005514     0.001200     NO 
 Predicted change in Energy=-2.546576D-06
 GradGradGradGradGradGradGradGradGradGradGradGradGradGradGradGradGradGrad

                          Input orientation:                          
 ---------------------------------------------------------------------
 Center     Atomic      Atomic             Coordinates (Angstroms)
 Number     Number       Type             X           Y           Z
 ---------------------------------------------------------------------
      1          6           0       -0.022015    0.013173   -0.016008
      2          6           0       -0.003982   -0.004684    1.511714
      3          1           0        0.985157   -0.006055   -0.437830
      4          1           0       -0.514383    0.915059   -0.387395
      5          1           0       -0.565871   -0.849015   -0.413226
      6          6           0        0.582728   -1.276586    2.131295
      7          1           0       -1.028585    0.117029    1.876720
      8          1           0        0.553377    0.864750    1.878357
      9          6           0        2.067188   -1.500630    1.847118
     10          1           0        0.011304   -2.144041    1.782029
     11          1           0        0.434939   -1.233454    3.214878
     12          1           0        2.262536   -1.650491    0.783126
     13          1           0        2.433661   -2.384808    2.374073
     14          1           0        2.664584   -0.645966    2.178174
 ---------------------------------------------------------------------
                    Distance matrix (angstroms):
                    1          2          3          4          5
     1  C    0.000000
     2  C    1.527932   0.000000
     3  H    1.092107   2.186119   0.000000
     4  H    1.092590   2.170956   1.760573   0.000000
     5  H    1.094043   2.175777   1.765467   1.765014   0.000000
     6  C    2.576839   1.531615   2.894236   3.514364   2.824302
     7  H    2.146250   1.094466   3.070415   2.455091   2.528082
     8  H    2.155197   1.095897   2.511863   2.505249   3.072630
     9  C    3.182390   2.576839   2.936926   4.182477   3.530830
    10  H    2.808491   2.156422   3.232205   3.786930   2.613306
    11  H    3.493066   2.145530   3.892496   4.300429   3.783194
    12  H    2.936931   2.894240   2.413836   3.957707   3.173879
    13  H    4.182480   3.514364   3.957705   5.215917   4.373201
    14  H    3.530823   2.824298   3.173868   4.373188   4.146375
                    6          7          8          9         10
     6  C    0.000000
     7  H    2.145530   0.000000
     8  H    2.156422   1.749769   0.000000
     9  C    1.527932   3.493066   2.808491   0.000000
    10  H    1.095897   2.490537   3.058748   2.155197   0.000000
    11  H    1.094466   2.399244   2.490537   2.146250   1.749769
    12  H    2.186120   3.892500   3.232212   1.092107   2.511860
    13  H    2.170956   4.300430   3.786928   1.092590   2.505254
    14  H    2.175777   3.783191   2.613302   1.094043   3.072630
                   11         12         13         14
    11  H    0.000000
    12  H    3.070415   0.000000
    13  H    2.455089   1.760572   0.000000
    14  H    2.528086   1.765467   1.765014   0.000000
 Stoichiometry    C4H10
 Framework group  C1[X(C4H10)]
 Deg. of freedom    36
 Full point group                 C1      NOp   1
 Largest Abelian subgroup         C1      NOp   1
 Largest concise Abelian subgroup C1      NOp   1
                         Standard orientation:                         
 ---------------------------------------------------------------------
 Center     Atomic      Atomic             Coordinates (Angstroms)
 Number     Number       Type             X           Y           Z
 ---------------------------------------------------------------------
      1          6           0       -1.586452   -0.553246    0.122763
      2          6           0       -0.702140    0.616786   -0.305713
      3          1           0       -1.187838   -1.512710   -0.213737
      4          1           0       -2.591298   -0.452793   -0.294307
      5          1           0       -1.682179   -0.595964    1.211773
      6          6           0        0.702140    0.616786    0.305714
      7          1           0       -1.199234    1.552213   -0.030522
      8          1           0       -0.619219    0.628008   -1.398411
      9          6           0        1.586452   -0.553245   -0.122763
     10          1           0        0.619218    0.628008    1.398411
     11          1           0        1.199234    1.552213    0.030523
     12          1           0        1.187843   -1.512709    0.213745
     13          1           0        2.591301   -0.452788    0.294299
     14          1           0        1.682171   -0.595970   -1.211774
 ---------------------------------------------------------------------
 Rotational constants (GHZ):     13.4290051      4.6896435      4.0157253
 Standard basis: CC-pVDZ (5D, 7F)
 There are   110 symmetry adapted cartesian basis functions of A   symmetry.
 There are   106 symmetry adapted basis functions of A   symmetry.
   106 basis functions,   202 primitive gaussians,   110 cartesian basis functions
    17 alpha electrons       17 beta electrons
       nuclear repulsion energy       132.2459061615 Hartrees.
 NAtoms=   14 NActive=   14 NUniq=   14 SFac= 1.00D+00 NAtFMM=   60 NAOKFM=F Big=F
 Integral buffers will be    131072 words long.
 Raffenetti 1 integral format.
 Two-electron integral symmetry is turned on.
 One-electron integrals computed using PRISM.
 NBasis=   106 RedAO= T EigKep=  4.93D-03  NBF=   106
 NBsUse=   106 1.00D-06 EigRej= -1.00D+00 NBFU=   106
 Initial guess from the checkpoint file:  "/blue/chm6586/le.chen/hw2/Gau-127912.chk"
 B after Tr=     0.000000    0.000000    0.000000
         Rot=    1.000000   -0.000001    0.000464    0.000000 Ang=  -0.05 deg.
 Keep R1 ints in memory in canonical form, NReq=17075464.
 Requested convergence on RMS density matrix=1.00D-08 within 128 cycles.
 Requested convergence on MAX density matrix=1.00D-06.
 Requested convergence on             energy=1.00D-06.
 No special actions if energy rises.
 SCF Done:  E(RHF) =  -157.308383438     A.U. after    7 cycles
            NFock=  7  Conv=0.49D-08     -V/T= 2.0013
 Calling FoFJK, ICntrl=      2127 FMM=F ISym2X=0 I1Cent= 0 IOpClX= 0 NMat=1 NMatS=1 NMatT=0.
 ***** Axes restored to original set *****
 -------------------------------------------------------------------
 Center     Atomic                   Forces (Hartrees/Bohr)
 Number     Number              X              Y              Z
 -------------------------------------------------------------------
      1        6           0.000006212   -0.000015356   -0.000001730
      2        6          -0.000041214   -0.000048361   -0.000021076
      3        1           0.000003836   -0.000019273   -0.000039697
      4        1           0.000024479    0.000008416   -0.000010698
      5        1          -0.000007474    0.000028614    0.000007819
      6        6           0.000034539    0.000049229    0.000029056
      7        1          -0.000015248    0.000002209    0.000040215
      8        1          -0.000008448   -0.000011427    0.000000758
      9        6           0.000002357    0.000014304   -0.000008496
     10        1           0.000002332    0.000012256    0.000006878
     11        1          -0.000036001    0.000005002    0.000023217
     12        1           0.000039747    0.000013157   -0.000014247
     13        1           0.000004060   -0.000012455   -0.000024758
     14        1          -0.000009176   -0.000026314    0.000012758
 -------------------------------------------------------------------
 Cartesian Forces:  Max     0.000049229 RMS     0.000022352

 GradGradGradGradGradGradGradGradGradGradGradGradGradGradGradGradGradGrad
 Berny optimization.
 Using GEDIIS/GDIIS optimizer.
 FormGI is forming the generalized inverse of G from B-inverse, IUseBI=4.
 Internal  Forces:  Max     0.000048304 RMS     0.000018879
 Search for a local minimum.
 Step number   4 out of a maximum of  100
 All quantities printed in internal units (Hartrees-Bohrs-Radians)
 Mixed Optimization -- En-DIIS/RFO-DIIS
 Swapping is turned off.
 Update second derivatives using D2CorX and points    1    2    3    4
 DE= -3.37D-06 DEPred=-2.55D-06 R= 1.32D+00
 TightC=F SS=  1.41D+00  RLast= 2.97D-02 DXNew= 5.6377D-01 8.9247D-02
 Trust test= 1.32D+00 RLast= 2.97D-02 DXMaxT set to 3.35D-01
 ITU=  1  1  1  0
     Eigenvalues ---    0.00225   0.00407   0.00489   0.03385   0.03584
     Eigenvalues ---    0.04836   0.04950   0.05467   0.05487   0.05615
     Eigenvalues ---    0.05647   0.08730   0.09002   0.12482   0.12760
     Eigenvalues ---    0.15882   0.16000   0.16000   0.16000   0.16136
     Eigenvalues ---    0.16954   0.21936   0.24544   0.30277   0.30939
     Eigenvalues ---    0.33407   0.34016   0.34070   0.34104   0.34204
     Eigenvalues ---    0.34221   0.34267   0.34294   0.34360   0.34962
     Eigenvalues ---    0.38629
 En-DIIS/RFO-DIIS IScMMF=        0 using points:     4    3    2
 RFO step:  Lambda=-1.28831319D-07.
 DidBck=F Rises=F RFO-DIIS coefs:    1.47938   -0.48128    0.00190
 Iteration  1 RMS(Cart)=  0.00505965 RMS(Int)=  0.00001590
 Iteration  2 RMS(Cart)=  0.00001694 RMS(Int)=  0.00000006
 Iteration  3 RMS(Cart)=  0.00000000 RMS(Int)=  0.00000006
 Variable       Old X    -DE/DX   Delta X   Delta X   Delta X     New X
                                 (Linear)    (Quad)   (Total)
    R1        2.88737   0.00004  -0.00050   0.00035  -0.00015   2.88722
    R2        2.06378   0.00002   0.00000   0.00010   0.00010   2.06388
    R3        2.06470   0.00000   0.00003  -0.00004  -0.00001   2.06469
    R4        2.06744  -0.00002   0.00013  -0.00013  -0.00001   2.06744
    R5        2.89433  -0.00002   0.00000  -0.00021  -0.00022   2.89412
    R6        2.06824   0.00003   0.00007   0.00006   0.00014   2.06838
    R7        2.07095  -0.00001   0.00010  -0.00007   0.00003   2.07097
    R8        2.88737   0.00004  -0.00050   0.00035  -0.00015   2.88722
    R9        2.07095  -0.00001   0.00010  -0.00007   0.00003   2.07097
   R10        2.06824   0.00003   0.00007   0.00006   0.00014   2.06838
   R11        2.06378   0.00002   0.00000   0.00010   0.00010   2.06388
   R12        2.06470   0.00000   0.00003  -0.00004  -0.00001   2.06469
   R13        2.06744  -0.00002   0.00013  -0.00013  -0.00001   2.06744
    A1        1.95530   0.00005  -0.00019   0.00056   0.00037   1.95568
    A2        1.93353   0.00001  -0.00003   0.00001  -0.00002   1.93352
    A3        1.93872  -0.00001   0.00009  -0.00014  -0.00005   1.93868
    A4        1.87427  -0.00003   0.00019  -0.00022  -0.00003   1.87424
    A5        1.88004  -0.00002  -0.00013  -0.00012  -0.00025   1.87979
    A6        1.87873   0.00000   0.00008  -0.00013  -0.00005   1.87868
    A7        2.00281   0.00000   0.00031  -0.00020   0.00010   2.00291
    A8        1.89770   0.00001  -0.00038   0.00061   0.00024   1.89793
    A9        1.90842   0.00001   0.00004  -0.00003   0.00002   1.90844
   A10        1.89236   0.00000  -0.00001   0.00010   0.00009   1.89245
   A11        1.90569  -0.00002   0.00021  -0.00044  -0.00023   1.90546
   A12        1.85076  -0.00001  -0.00022  -0.00002  -0.00025   1.85051
   A13        2.00281   0.00000   0.00031  -0.00020   0.00010   2.00291
   A14        1.90568  -0.00002   0.00021  -0.00044  -0.00023   1.90546
   A15        1.89236   0.00000  -0.00001   0.00010   0.00009   1.89245
   A16        1.90842   0.00001   0.00004  -0.00002   0.00002   1.90843
   A17        1.89770   0.00001  -0.00038   0.00061   0.00023   1.89793
   A18        1.85076  -0.00001  -0.00022  -0.00002  -0.00024   1.85052
   A19        1.95530   0.00005  -0.00019   0.00056   0.00037   1.95568
   A20        1.93353   0.00001  -0.00003   0.00001  -0.00002   1.93351
   A21        1.93872  -0.00001   0.00009  -0.00014  -0.00005   1.93868
   A22        1.87427  -0.00003   0.00019  -0.00022  -0.00003   1.87424
   A23        1.88004  -0.00002  -0.00013  -0.00012  -0.00025   1.87979
   A24        1.87873   0.00000   0.00008  -0.00012  -0.00005   1.87868
    D1       -1.11744   0.00002   0.00250   0.00376   0.00626  -1.11118
    D2        3.04362   0.00001   0.00258   0.00331   0.00590   3.04952
    D3        1.03026   0.00001   0.00303   0.00302   0.00605   1.03631
    D4        3.07321   0.00002   0.00240   0.00366   0.00606   3.07927
    D5        0.95108   0.00001   0.00249   0.00321   0.00570   0.95679
    D6       -1.06228   0.00000   0.00294   0.00291   0.00586  -1.05642
    D7        0.98603   0.00003   0.00226   0.00390   0.00616   0.99219
    D8       -1.13609   0.00002   0.00235   0.00345   0.00580  -1.13029
    D9        3.13373   0.00001   0.00280   0.00316   0.00596   3.13968
   D10        1.13505   0.00000   0.00343   0.00106   0.00449   1.13955
   D11       -1.01411   0.00000   0.00299   0.00158   0.00457  -1.00954
   D12       -3.02311   0.00001   0.00314   0.00179   0.00493  -3.01817
   D13       -3.02311   0.00001   0.00315   0.00179   0.00494  -3.01817
   D14        1.11092   0.00002   0.00270   0.00231   0.00502   1.11593
   D15       -0.89808   0.00003   0.00286   0.00252   0.00538  -0.89270
   D16       -1.01411   0.00000   0.00299   0.00158   0.00457  -1.00954
   D17        3.11991   0.00000   0.00255   0.00211   0.00465   3.12456
   D18        1.11092   0.00002   0.00270   0.00231   0.00501   1.11593
   D19       -1.11745   0.00002   0.00250   0.00377   0.00627  -1.11118
   D20        3.07320   0.00002   0.00241   0.00367   0.00607   3.07927
   D21        0.98602   0.00003   0.00226   0.00391   0.00617   0.99219
   D22        1.03025   0.00001   0.00304   0.00302   0.00606   1.03631
   D23       -1.06229   0.00000   0.00294   0.00292   0.00586  -1.05643
   D24        3.13372   0.00001   0.00280   0.00316   0.00596   3.13968
   D25        3.04361   0.00001   0.00259   0.00332   0.00591   3.04952
   D26        0.95107   0.00001   0.00250   0.00322   0.00571   0.95678
   D27       -1.13610   0.00002   0.00235   0.00346   0.00581  -1.13029
         Item               Value     Threshold  Converged?
 Maximum Force            0.000048     0.000450     YES
 RMS     Force            0.000019     0.000300     YES
 Maximum Displacement     0.017732     0.001800     NO 
 RMS     Displacement     0.005059     0.001200     NO 
 Predicted change in Energy=-1.022977D-06
 GradGradGradGradGradGradGradGradGradGradGradGradGradGradGradGradGradGrad

                          Input orientation:                          
 ---------------------------------------------------------------------
 Center     Atomic      Atomic             Coordinates (Angstroms)
 Number     Number       Type             X           Y           Z
 ---------------------------------------------------------------------
      1          6           0       -0.024250    0.011870   -0.016684
      2          6           0       -0.003316   -0.004825    1.510932
[...]
 ! R9    R(6,10)                 1.0959         -DE/DX =    0.0                 !
 ! R10   R(6,11)                 1.0945         -DE/DX =    0.0                 !
 ! R11   R(9,12)                 1.0921         -DE/DX =    0.0                 !
 ! R12   R(9,13)                 1.0926         -DE/DX =    0.0                 !
 ! R13   R(9,14)                 1.094          -DE/DX =    0.0                 !
 ! A1    A(2,1,3)              112.053          -DE/DX =    0.0                 !
 ! A2    A(2,1,4)              110.7853         -DE/DX =    0.0                 !
 ! A3    A(2,1,5)              111.0749         -DE/DX =    0.0                 !
 ! A4    A(3,1,4)              107.3793         -DE/DX =    0.0                 !
 ! A5    A(3,1,5)              107.7103         -DE/DX =    0.0                 !
 ! A6    A(4,1,5)              107.6397         -DE/DX =    0.0                 !
 ! A7    A(1,2,6)              114.7572         -DE/DX =    0.0                 !
 ! A8    A(1,2,7)              108.7304         -DE/DX =    0.0                 !
 ! A9    A(1,2,8)              109.3508         -DE/DX =    0.0                 !
 ! A10   A(6,2,7)              108.4282         -DE/DX =    0.0                 !
 ! A11   A(6,2,8)              109.1819         -DE/DX =    0.0                 !
 ! A12   A(7,2,8)              106.0298         -DE/DX =    0.0                 !
 ! A13   A(2,6,9)              114.7572         -DE/DX =    0.0                 !
 ! A14   A(2,6,10)             109.1819         -DE/DX =    0.0                 !
 ! A15   A(2,6,11)             108.4282         -DE/DX =    0.0                 !
 ! A16   A(9,6,10)             109.3507         -DE/DX =    0.0                 !
 ! A17   A(9,6,11)             108.7304         -DE/DX =    0.0                 !
 ! A18   A(10,6,11)            106.0298         -DE/DX =    0.0                 !
 ! A19   A(6,9,12)             112.053          -DE/DX =    0.0                 !
 ! A20   A(6,9,13)             110.7853         -DE/DX =    0.0                 !
 ! A21   A(6,9,14)             111.0749         -DE/DX =    0.0                 !
 ! A22   A(12,9,13)            107.3793         -DE/DX =    0.0                 !
 ! A23   A(12,9,14)            107.7103         -DE/DX =    0.0                 !
 ! A24   A(13,9,14)            107.6397         -DE/DX =    0.0                 !
 ! D1    D(3,1,2,6)            -63.666          -DE/DX =    0.0                 !
 ! D2    D(3,1,2,7)            174.7368         -DE/DX =    0.0                 !
 ! D3    D(3,1,2,8)             59.3887         -DE/DX =    0.0                 !
 ! D4    D(4,1,2,6)            176.4349         -DE/DX =    0.0                 !
 ! D5    D(4,1,2,7)             54.8377         -DE/DX =    0.0                 !
 ! D6    D(4,1,2,8)            -60.5104         -DE/DX =    0.0                 !
 ! D7    D(5,1,2,6)             56.8553         -DE/DX =    0.0                 !
 ! D8    D(5,1,2,7)            -64.7419         -DE/DX =    0.0                 !
 ! D9    D(5,1,2,8)            179.91           -DE/DX =    0.0                 !
 ! D10   D(1,2,6,9)             65.3592         -DE/DX =    0.0                 !
 ! D11   D(1,2,6,10)           -57.7861         -DE/DX =    0.0                 !
 ! D12   D(1,2,6,11)          -172.879          -DE/DX =    0.0                 !
 ! D13   D(7,2,6,9)           -172.879          -DE/DX =    0.0                 !
 ! D14   D(7,2,6,10)            63.9757         -DE/DX =    0.0                 !
 ! D15   D(7,2,6,11)           -51.1172         -DE/DX =    0.0                 !
 ! D16   D(8,2,6,9)            -57.7861         -DE/DX =    0.0                 !
 ! D17   D(8,2,6,10)           179.0686         -DE/DX =    0.0                 !
 ! D18   D(8,2,6,11)            63.9757         -DE/DX =    0.0                 !
 ! D19   D(2,6,9,12)           -63.6661         -DE/DX =    0.0                 !
 ! D20   D(2,6,9,13)           176.4348         -DE/DX =    0.0                 !
 ! D21   D(2,6,9,14)            56.8552         -DE/DX =    0.0                 !
 ! D22   D(10,6,9,12)           59.3886         -DE/DX =    0.0                 !
 ! D23   D(10,6,9,13)          -60.5105         -DE/DX =    0.0                 !
 ! D24   D(10,6,9,14)          179.91           -DE/DX =    0.0                 !
 ! D25   D(11,6,9,12)          174.7367         -DE/DX =    0.0                 !
 ! D26   D(11,6,9,13)           54.8376         -DE/DX =    0.0                 !
 ! D27   D(11,6,9,14)          -64.7419         -DE/DX =    0.0                 !
 --------------------------------------------------------------------------------
 GradGradGradGradGradGradGradGradGradGradGradGradGradGradGradGradGradGrad

                          Input orientation:                          
 ---------------------------------------------------------------------
 Center     Atomic      Atomic             Coordinates (Angstroms)
 Number     Number       Type             X           Y           Z
 ---------------------------------------------------------------------
      1          6           0       -0.024711    0.011856   -0.016864
      2          6           0       -0.003075   -0.004699    1.510827
      3          1           0        0.981105   -0.015401   -0.441525
      4          1           0       -0.511214    0.917044   -0.387951
      5          1           0       -0.576086   -0.846551   -0.411813
      6          6           0        0.583394   -1.276791    2.130236
      7          1           0       -1.026658    0.118848    1.878181
      8          1           0        0.556279    0.864287    1.875508
      9          6           0        2.068744   -1.499152    1.849385
     10          1           0        0.013497   -2.144294    1.778584
     11          1           0        0.432908   -1.235256    3.213548
     12          1           0        2.268023   -1.641340    0.785046
     13          1           0        2.433298   -2.387193    2.371152
     14          1           0        2.665135   -0.647075    2.188712
 ---------------------------------------------------------------------
                    Distance matrix (angstroms):
                    1          2          3          4          5
     1  C    0.000000
     2  C    1.527934   0.000000
     3  H    1.092129   2.186414   0.000000
     4  H    1.092592   2.170985   1.760494   0.000000
     5  H    1.094012   2.175685   1.765372   1.764949   0.000000
     6  C    2.576906   1.531611   2.891926   3.514591   2.826928
     7  H    2.146285   1.094502   3.070859   2.457266   2.525685
     8  H    2.155287   1.095904   2.514552   2.503112   3.072630
     9  C    3.185684   2.576906   2.938153   4.183283   3.540344
    10  H    2.806079   2.156348   3.224490   3.786950   2.613348
    11  H    3.492888   2.145602   3.892060   4.300530   3.783174
    12  H    2.938154   2.891927   2.409215   3.955429   3.186397
    13  H    4.183284   3.514591   3.955428   5.215437   4.378911
    14  H    3.540343   2.826927   3.186395   4.378910   4.160293
                    6          7          8          9         10
     6  C    0.000000
     7  H    2.145602   0.000000
     8  H    2.156348   1.749679   0.000000
     9  C    1.527935   3.492888   2.806079   0.000000
    10  H    1.095904   2.492721   3.058688   2.155287   0.000000
    11  H    1.094502   2.397318   2.492720   2.146285   1.749679
    12  H    2.186414   3.892060   3.224492   1.092129   2.514552
    13  H    2.170985   4.300530   3.786950   1.092592   2.503112
    14  H    2.175685   3.783174   2.613348   1.094012   3.072630
                   11         12         13         14
    11  H    0.000000
    12  H    3.070859   0.000000
    13  H    2.457265   1.760495   0.000000
    14  H    2.525685   1.765372   1.764949   0.000000
 Stoichiometry    C4H10
 Framework group  C1[X(C4H10)]
 Deg. of freedom    36
 Full point group                 C1      NOp   1
 Largest Abelian subgroup         C1      NOp   1
 Largest concise Abelian subgroup C1      NOp   1
                         Standard orientation:                         
 ---------------------------------------------------------------------
 Center     Atomic      Atomic             Coordinates (Angstroms)
 Number     Number       Type             X           Y           Z
 ---------------------------------------------------------------------
      1          6           0       -1.588087   -0.552233    0.122983
      2          6           0       -0.701606    0.615632   -0.306931
      3          1           0       -1.187077   -1.513754   -0.204759
      4          1           0       -2.590265   -0.454933   -0.301196
      5          1           0       -1.690896   -0.588151    1.211561
      6          6           0        0.701606    0.615632    0.306931
      7          1           0       -1.198143    1.552398   -0.035166
      8          1           0       -0.616666    0.624045   -1.399505
      9          6           0        1.588087   -0.552233   -0.122983
     10          1           0        0.616666    0.624045    1.399505
     11          1           0        1.198143    1.552398    0.035166
     12          1           0        1.187078   -1.513754    0.204760
     13          1           0        2.590266   -0.454932    0.301195
     14          1           0        1.690896   -0.588151   -1.211561
 ---------------------------------------------------------------------
 Rotational constants (GHZ):     13.4477760      4.6824545      4.0137584

 **********************************************************************

            Population analysis using the SCF density.

 **********************************************************************

 Orbital symmetries:
       Occupied  (A) (A) (A) (A) (A) (A) (A) (A) (A) (A) (A) (A)
                 (A) (A) (A) (A) (A)
       Virtual   (A) (A) (A) (A) (A) (A) (A) (A) (A) (A) (A) (A)
                 (A) (A) (A) (A) (A) (A) (A) (A) (A) (A) (A) (A)
                 (A) (A) (A) (A) (A) (A) (A) (A) (A) (A) (A) (A)
                 (A) (A) (A) (A) (A) (A) (A) (A) (A) (A) (A) (A)
                 (A) (A) (A) (A) (A) (A) (A) (A) (A) (A) (A) (A)
                 (A) (A) (A) (A) (A) (A) (A) (A) (A) (A) (A) (A)
                 (A) (A) (A) (A) (A) (A) (A) (A) (A) (A) (A) (A)
                 (A) (A) (A) (A) (A)
 The electronic state is 1-A.
 Alpha  occ. eigenvalues --  -11.22017 -11.21959 -11.21586 -11.21586  -1.06921
 Alpha  occ. eigenvalues --   -0.97634  -0.87289  -0.77536  -0.62145  -0.61701
 Alpha  occ. eigenvalues --   -0.57256  -0.53232  -0.52961  -0.50235  -0.46048
 Alpha  occ. eigenvalues --   -0.45678  -0.45551
 Alpha virt. eigenvalues --    0.18052   0.21881   0.22104   0.22759   0.25980
 Alpha virt. eigenvalues --    0.27359   0.28314   0.28763   0.29014   0.31524
 Alpha virt. eigenvalues --    0.38426   0.39964   0.44337   0.57652   0.58744
 Alpha virt. eigenvalues --    0.61784   0.61879   0.62779   0.66528   0.72497
 Alpha virt. eigenvalues --    0.83519   0.84645   0.85295   0.88023   0.88788
 Alpha virt. eigenvalues --    0.89241   0.89896   0.91077   0.91100   0.91914
 Alpha virt. eigenvalues --    0.92261   0.93568   0.95751   0.97412   1.01668
 Alpha virt. eigenvalues --    1.13038   1.13197   1.18360   1.34334   1.37480
 Alpha virt. eigenvalues --    1.41741   1.42824   1.51161   1.59003   1.63127
 Alpha virt. eigenvalues --    1.67139   1.69147   1.70359   1.72968   1.86253
 Alpha virt. eigenvalues --    1.86347   1.88148   1.91608   1.91696   1.93993
 Alpha virt. eigenvalues --    1.94950   1.95426   1.96530   1.97054   1.99297
 Alpha virt. eigenvalues --    2.00005   2.00365   2.01086   2.05810   2.08704
 Alpha virt. eigenvalues --    2.14114   2.15448   2.26805   2.29608   2.33413
 Alpha virt. eigenvalues --    2.34816   2.38168   2.42732   2.50734   2.54016
 Alpha virt. eigenvalues --    2.57393   2.58788   2.61769   2.62046   2.76658
 Alpha virt. eigenvalues --    2.77306   2.80524   2.84434   2.85376   2.88304
 Alpha virt. eigenvalues --    2.96591   2.98371   3.05485   3.09275
          Condensed to atoms (all electrons):
               1          2          3          4          5          6
     1  C    4.529561   0.418760   0.409823   0.409379   0.407685  -0.063994
     2  C    0.418760   4.643800  -0.028051  -0.022774  -0.032415   0.424750
     3  H    0.409823  -0.028051   0.645135  -0.025993  -0.027909  -0.004326
     4  H    0.409379  -0.022774  -0.025993   0.641559  -0.025673   0.005754
     5  H    0.407685  -0.032415  -0.027909  -0.025673   0.650166  -0.004112
     6  C   -0.063994   0.424750  -0.004326   0.005754  -0.004112   4.643800
     7  H   -0.030456   0.404314   0.007384  -0.006311  -0.005641  -0.026507
     8  H   -0.032783   0.400983  -0.006439  -0.004518   0.007515  -0.032236
     9  C   -0.004551  -0.063994   0.001378  -0.000126  -0.000477   0.418760
    10  H   -0.006154  -0.032236  -0.000363  -0.000031   0.004021   0.400983
    11  H    0.006553  -0.026507  -0.000141  -0.000226   0.000015   0.404314
    12  H    0.001378  -0.004326  -0.000450  -0.000052   0.000298  -0.028051
    13  H   -0.000126   0.005754  -0.000052   0.000014  -0.000040  -0.022774
    14  H   -0.000477  -0.004112   0.000298  -0.000040   0.000035  -0.032415
               7          8          9         10         11         12
     1  C   -0.030456  -0.032783  -0.004551  -0.006154   0.006553   0.001378
     2  C    0.404314   0.400983  -0.063994  -0.032236  -0.026507  -0.004326
     3  H    0.007384  -0.006439   0.001378  -0.000363  -0.000141  -0.000450
     4  H   -0.006311  -0.004518  -0.000126  -0.000031  -0.000226  -0.000052
     5  H   -0.005641   0.007515  -0.000477   0.004021   0.000015   0.000298
     6  C   -0.026507  -0.032236   0.418760   0.400983   0.404314  -0.028051
     7  H    0.672781  -0.031688   0.006553  -0.005061  -0.006921  -0.000141
     8  H   -0.031688   0.677345  -0.006154   0.008043  -0.005061  -0.000363
     9  C    0.006553  -0.006154   4.529561  -0.032783  -0.030456   0.409823
    10  H   -0.005061   0.008043  -0.032783   0.677345  -0.031688  -0.006439
    11  H   -0.006921  -0.005061  -0.030456  -0.031688   0.672781   0.007384
    12  H   -0.000141  -0.000363   0.409823  -0.006439   0.007384   0.645135
    13  H   -0.000226  -0.000031   0.409379  -0.004518  -0.006311  -0.025993
    14  H    0.000015   0.004021   0.407685   0.007515  -0.005641  -0.027909
              13         14
     1  C   -0.000126  -0.000477
     2  C    0.005754  -0.004112
     3  H   -0.000052   0.000298
     4  H    0.000014  -0.000040
     5  H   -0.000040   0.000035
     6  C   -0.022774  -0.032415
     7  H   -0.000226   0.000015
     8  H   -0.000031   0.004021
     9  C    0.409379   0.407685
    10  H   -0.004518   0.007515
    11  H   -0.006311  -0.005641
    12  H   -0.025993  -0.027909
    13  H    0.641559  -0.025673
    14  H   -0.025673   0.650166
 Mulliken charges:
               1
     1  C   -0.044599
     2  C   -0.083946
     3  H    0.029706
     4  H    0.029038
     5  H    0.026531
     6  C   -0.083946
     7  H    0.021904
     8  H    0.021364
     9  C   -0.044599
    10  H    0.021364
    11  H    0.021904
    12  H    0.029706
    13  H    0.029039
    14  H    0.026531
 Sum of Mulliken charges =   0.00000
 Mulliken charges with hydrogens summed into heavy atoms:
               1
     1  C    0.040677
     2  C   -0.040677
     6  C   -0.040677
     9  C    0.040677
 Electronic spatial extent (au):  <R**2>=            384.3640
 Charge=              0.0000 electrons
 Dipole moment (field-independent basis, Debye):
    X=              0.0000    Y=              0.0695    Z=              0.0000  Tot=              0.0695
 Quadrupole moment (field-independent basis, Debye-Ang):
   XX=            -28.9466   YY=            -28.8352   ZZ=            -28.4200
   XY=              0.0000   XZ=              0.0450   YZ=              0.0000
 Traceless Quadrupole moment (field-independent basis, Debye-Ang):
   XX=             -0.2126   YY=             -0.1013   ZZ=              0.3139
   XY=              0.0000   XZ=              0.0450   YZ=              0.0000
 Octapole moment (field-independent basis, Debye-Ang**2):
  XXX=              0.0000  YYY=              0.2341  ZZZ=              0.0000  XYY=              0.0000
  XXY=              1.3993  XXZ=              0.0000  XZZ=              0.0000  YZZ=             -0.0588
  YYZ=              0.0000  XYZ=             -0.4880
 Hexadecapole moment (field-independent basis, Debye-Ang**3):
 XXXX=           -336.8177 YYYY=           -124.3598 ZZZZ=            -67.0849 XXXY=              0.0000
 XXXZ=              4.0737 YYYX=              0.0000 YYYZ=              0.0000 ZZZX=             -1.4223
 ZZZY=              0.0000 XXYY=            -80.0724 XXZZ=            -68.5130 YYZZ=            -33.9476
 XXYZ=              0.0000 YYXZ=             -0.2675 ZZXY=              0.0000
 N-N= 1.322333418790D+02 E-N=-6.295637869065D+02  KE= 1.571070072555D+02
 B after Tr=     0.001432    0.005153    0.002599
         Rot=    1.000000   -0.000609    0.000085    0.000750 Ang=  -0.11 deg.
 Final structure in terms of initial Z-matrix:
 C
 C,1,B1
 H,1,B2,2,A2
 H,1,B3,2,A3,3,D3,0
 H,1,B4,2,A4,3,D4,0
 C,2,B5,1,A5,3,D5,0
 H,2,B6,1,A6,3,D6,0
 H,2,B7,1,A7,3,D7,0
 C,6,B8,2,A8,1,D8,0
 H,6,B9,2,A9,1,D9,0
 H,6,B10,2,A10,1,D10,0
 H,9,B11,6,A11,2,D11,0
 H,9,B12,6,A12,2,D12,0
 H,9,B13,6,A13,2,D13,0
      Variables:
 B1=1.52793444
 B2=1.09212934
 A2=112.05300566
 B3=1.09259152
 A3=110.78528003
 D3=-119.8990971
 B4=1.09401155
 A4=111.07490684
 D4=120.52130119
 B5=1.53161073
 A5=114.75718163
 D5=-63.66604783
 B6=1.09450243
 A6=108.7304212
 D6=174.7367939
 B7=1.09590392
 A7=109.35075156
 D7=59.38872653
 B8=1.52793476
 A8=114.75717561
 D8=65.35923568
 B9=1.09590385
 A9=109.18186073
 D9=-57.78607364
 B10=1.09450232
 A10=108.4281839
 D10=-172.87900599
 B11=1.09212931
 A11=112.05300784
 D11=-63.66611412
 B12=1.09259152
 A12=110.78526569
 D12=176.43478483
 B13=1.09401155
 A13=111.07489371
 D13=56.8551954
 1\1\GINC-C0700A-S8\FOpt\RHF\CC-pVDZ\C4H10\LE.CHEN\19-Sep-2021\0\\#n HF
 /cc-pvdz Opt=(MaxCyc=2000)\\Title\\0,1\C,-0.0259833159,0.0092062472,-0
 .017597997\C,-0.0043468181,-0.0073483661,1.5100935493\H,0.9798329471,-
 0.018050777,-0.4422592663\H,-0.5124862168,0.9143944569,-0.3886848584\H
 ,-0.577358262,-0.8492004995,-0.4125471184\C,0.5821225653,-1.2794401187
 ,2.1295026801\H,-1.0279302411,0.1161985455,1.8774472048\H,0.5550067645
 ,0.8616379332,1.8747739329\C,2.0674718336,-1.5018016623,1.848651237\H,
 0.012224921,-2.1469438063,1.7778504699\H,0.4316358966,-1.237905273,3.2
 128142426\H,2.2667514644,-1.6439897041,0.7843126579\H,2.4320258325,-2.
 3898424034,2.3704177156\H,2.6638629309,-0.6497239196,2.1879777011\\Ver
 sion=AS64L-G09RevD.01\State=1-A\HF=-157.3083845\RMSD=4.394e-09\RMSF=7.
 612e-06\Dipole=-0.0171402,0.00241,0.0211782\Quadrupole=-0.0592233,0.14
 68817,-0.0876584,0.1398724,-0.0028965,0.0879189\PG=C01 [X(C4H10)]\\@


 10 WHATSOEVER THY HAND FINDETH TO DO, DO IT WITH THY  
 MIGHT. FOR THERE IS NO WORK, NOR DEVICE, NOR KNOWLEDGE, NOR  
 WISDOM, IN THE GRAVE, WHITHER THOU GOEST.                    
 11 I RETURNED AND SAW UNDER THE SUN, THAT THE RACE IS NOT TO 
 THE SWIFT, NOR THE BATTLE TO THE STRONG, NEITHER YET BREAD TO
 THE WISE, NOR YET RICHES TO MEN OF UNDERSTANDING, NOR YET    
 FAVOR TO MEN OF SKILL. BUT TIME AND CHANCE HAPPEN TO THEM ALL.
 12 FOR MAN ALSO KNOWETH NOT HIS TIME. AS THE FISHES   
 THAT ARE TAKEN IN AN EVIL NET, AND AS THE BIRDS THAT ARE     
 CAUGHT IN THE SNARE. SO ARE THE SONS OF MEN SNARED IN AN EVIL
 TIME, WHEN IT FALLETH SUDDENLY UPON THEM.
                                         ECCLESIASTES 9
 Job cpu time:       0 days  0 hours  0 minutes 22.6 seconds.
 File lengths (MBytes):  RWF=      7 Int=      0 D2E=      0 Chk=      2 Scr=      1
 Normal termination of Gaussian 09 at Sun Sep 19 23:19:33 2021.
