 Entering Gaussian System, Link 0=g09
 Initial command:
 /apps/gaussian/g09/amd-sse4a/l1.exe "/blue/chm6586/le.chen/hw3/q2/Gau-7998.inp" -scrdir="/blue/chm6586/le.chen/hw3/q2/"
 Entering Link 1 = /apps/gaussian/g09/amd-sse4a/l1.exe PID=      8001.
  
 Copyright (c) 1988,1990,1992,1993,1995,1998,2003,2009,2013,
            Gaussian, Inc.  All Rights Reserved.
  
 This is part of the Gaussian(R) 09 program.  It is based on
 the Gaussian(R) 03 system (copyright 2003, Gaussian, Inc.),
 the Gaussian(R) 98 system (copyright 1998, Gaussian, Inc.),
 the Gaussian(R) 94 system (copyright 1995, Gaussian, Inc.),
 the Gaussian 92(TM) system (copyright 1992, Gaussian, Inc.),
 the Gaussian 90(TM) system (copyright 1990, Gaussian, Inc.),
 the Gaussian 88(TM) system (copyright 1988, Gaussian, Inc.),
 the Gaussian 86(TM) system (copyright 1986, Carnegie Mellon
 University), and the Gaussian 82(TM) system (copyright 1983,
 Carnegie Mellon University). Gaussian is a federally registered
 trademark of Gaussian, Inc.
  
 This software contains proprietary and confidential information,
 including trade secrets, belonging to Gaussian, Inc.
  
 This software is provided under written license and may be
 used, copied, transmitted, or stored only in accord with that
 written license.
  
 The following legend is applicable only to US Government
 contracts under FAR:
  
                    RESTRICTED RIGHTS LEGEND
  
 Use, reproduction and disclosure by the US Government is
 subject to restrictions as set forth in subparagraphs (a)
 and (c) of the Commercial Computer Software - Restricted
 Rights clause in FAR 52.227-19.
  
 Gaussian, Inc.
 340 Quinnipiac St., Bldg. 40, Wallingford CT 06492
  
  
 ---------------------------------------------------------------
 Warning -- This program may not be used in any manner that
 competes with the business of Gaussian, Inc. or will provide
 assistance to any competitor of Gaussian, Inc.  The licensee
 of this program is prohibited from giving any competitor of
 Gaussian, Inc. access to this program.  By using this program,
 the user acknowledges that Gaussian, Inc. is engaged in the
 business of creating and licensing software in the field of
 computational chemistry and represents and warrants to the
 licensee that it is not a competitor of Gaussian, Inc. and that
 it will not use this program in any manner prohibited above.
 ---------------------------------------------------------------
  

 Cite this work as:
 Gaussian 09, Revision D.01,
 M. J. Frisch, G. W. Trucks, H. B. Schlegel, G. E. Scuseria, 
 M. A. Robb, J. R. Cheeseman, G. Scalmani, V. Barone, B. Mennucci, 
 G. A. Petersson, H. Nakatsuji, M. Caricato, X. Li, H. P. Hratchian, 
 A. F. Izmaylov, J. Bloino, G. Zheng, J. L. Sonnenberg, M. Hada, 
 M. Ehara, K. Toyota, R. Fukuda, J. Hasegawa, M. Ishida, T. Nakajima, 
 Y. Honda, O. Kitao, H. Nakai, T. Vreven, J. A. Montgomery, Jr., 
 J. E. Peralta, F. Ogliaro, M. Bearpark, J. J. Heyd, E. Brothers, 
 K. N. Kudin, V. N. Staroverov, T. Keith, R. Kobayashi, J. Normand, 
 K. Raghavachari, A. Rendell, J. C. Burant, S. S. Iyengar, J. Tomasi, 
 M. Cossi, N. Rega, J. M. Millam, M. Klene, J. E. Knox, J. B. Cross, 
 V. Bakken, C. Adamo, J. Jaramillo, R. Gomperts, R. E. Stratmann, 
 O. Yazyev, A. J. Austin, R. Cammi, C. Pomelli, J. W. Ochterski, 
 R. L. Martin, K. Morokuma, V. G. Zakrzewski, G. A. Voth, 
 P. Salvador, J. J. Dannenberg, S. Dapprich, A. D. Daniels, 
 O. Farkas, J. B. Foresman, J. V. Ortiz, J. Cioslowski, 
 and D. J. Fox, Gaussian, Inc., Wallingford CT, 2013.
 
 ******************************************
 Gaussian 09:  AS64L-G09RevD.01 24-Apr-2013
                 7-Oct-2021 
 ******************************************
 %chk=ch3ooch3_rigid_scan.chk
 ------------------------------------
 # scan rhf/cc-pvdz geom=connectivity
 ------------------------------------
 1/38=1,57=2,60=1/1,8;
 2/12=2,17=6,18=5,29=3,40=1/2;
 3/5=16,11=1,16=1,25=1,30=1,116=1/1,2,3;
 4//1;
 5/5=2,38=5/2;
 6/7=2,8=2,9=2,10=2,18=1,28=1/1;
 1/60=1/8(1);
 99/9=1/99;
 2/29=3/2;
 3/5=16,11=1,16=1,25=1,30=1,116=1/1,2,3;
 4/5=5,16=3,69=1/1;
 5/5=2,38=5/2;
 1/60=1/8(-4);
 99/9=1/99;
 -------------------
 Title Card Required
 -------------------
 Symbolic Z-matrix:
 Charge =  0 Multiplicity = 1
 O
 O                    1    B1
 C                    2    B2       1    A1
 H                    3    B3       2    A2       1    D1       0
 H                    3    B4       2    A3       1    D2       0
 H                    3    B5       2    A4       1    D3       0
 C                    1    B6       2    A5       3    D4       0
 H                    7    B7       1    A6       2    D5       0
 H                    7    B8       1    A7       2    D6       0
 H                    7    B9       1    A8       2    D7       0
       Variables:
  B1                    1.39479                  
  B2                    1.39575                  
  B3                    1.08851                  
  B4                    1.09124                  
  B5                    1.09123                  
  B6                    1.39575                  
  B7                    1.09125                  
  B8                    1.08851                  
  B9                    1.09123                  
  A1                  106.22301                  
  A2                  105.63096                  
  A3                  110.8781                   
  A4                  110.88462                  
  A5                  106.22193                  
  A6                  110.88913                  
  A7                  105.62292                  
  A8                  110.88321                  
  D1                  179.98881                  
  D2                  -61.0288                   
  D3                   61.01495                  
  D4                 -179.93194Scan 72    5.     
  D5                   61.02254                  
  D6                  179.99143                  
  D7                  -61.0269                   
 
 Scan the potential surface.
 Variable   Value     No. Steps Step-Size
 -------- ----------- --------- ---------
    21    -179.931938      72      5.0000
 A total of     73 points will be computed.
 ---------------------------------------------------------------------------------------------------
                            Z-MATRIX (ANGSTROMS AND DEGREES)
   CD    Cent   Atom    N1       Length/X        N2       Alpha/Y        N3        Beta/Z          J
 ---------------------------------------------------------------------------------------------------
      1      1  O 
      2      2  O        1   1.394786(     1)
      3      3  C        2   1.395751(     2)      1  106.223(    10)
      4      4  H        3   1.088515(     3)      2  105.631(    11)      1  179.989(    18)      0
      5      5  H        3   1.091238(     4)      2  110.878(    12)      1  -61.029(    19)      0
      6      6  H        3   1.091231(     5)      2  110.885(    13)      1   61.015(    20)      0
      7      7  C        1   1.395751(     6)      2  106.222(    14)      3 -179.932(    21)      0
      8      8  H        7   1.091249(     7)      1  110.889(    15)      2   61.023(    22)      0
      9      9  H        7   1.088507(     8)      1  105.623(    16)      2  179.991(    23)      0
     10     10  H        7   1.091227(     9)      1  110.883(    17)      2  -61.027(    24)      0
 ---------------------------------------------------------------------------------------------------
                         Z-Matrix orientation:                         
 ---------------------------------------------------------------------
 Center     Atomic      Atomic             Coordinates (Angstroms)
 Number     Number       Type             X           Y           Z
 ---------------------------------------------------------------------
      1          8           0        0.000000    0.000000    0.000000
      2          8           0        0.000000    0.000000    1.394786
      3          6           0        1.340174    0.000000    1.784727
      4          1           0        1.328927    0.000205    2.873183
      5          1           0        1.851558   -0.892000    1.419182
      6          1           0        1.851720    0.891837    1.419030
      7          6           0       -1.340181    0.001592   -0.389915
      8          1           0       -1.850709    0.894089   -0.024353
      9          1           0       -1.328801    0.001735   -1.478362
     10          1           0       -1.852703   -0.889744   -0.024378
 ---------------------------------------------------------------------
                    Distance matrix (angstroms):
                    1          2          3          4          5
     1  O    0.000000
     2  O    1.394786   0.000000
     3  C    2.231886   1.395751   0.000000
     4  H    3.165632   1.987889   1.088515   0.000000
     5  H    2.497601   2.055365   1.091238   1.784179   0.000000
     6  H    2.497576   2.055439   1.091231   1.784063   1.783837
     7  C    1.395751   2.231871   3.451576   4.215679   3.776048
     8  H    2.055507   2.497694   3.775434   4.393726   4.356683
     9  H    1.987780   3.165549   4.215588   5.098967   4.394225
    10  H    2.055419   2.497635   3.776105   4.394386   3.975602
                    6          7          8          9         10
     6  H    0.000000
     7  C    3.775322   0.000000
     8  H    3.973832   1.091249   0.000000
     9  H    4.393504   1.088507   1.784047   0.000000
    10  H    4.356628   1.091227   1.783834   1.784175   0.000000
 Stoichiometry    C2H6O2
 Framework group  C1[X(C2H6O2)]
 Deg. of freedom    24
 Full point group                 C1      NOp   1
 Largest Abelian subgroup         C1      NOp   1
 Largest concise Abelian subgroup C1      NOp   1
                         Standard orientation:                         
 ---------------------------------------------------------------------
 Center     Atomic      Atomic             Coordinates (Angstroms)
 Number     Number       Type             X           Y           Z
 ---------------------------------------------------------------------
      1          8           0       -0.469939    0.515285   -0.000461
      2          8           0        0.469938   -0.515278   -0.000461
      3          6           0        1.722911    0.099684    0.000339
      4          1           0        2.448057   -0.712121    0.000537
      5          1           0        1.854827    0.714727   -0.891356
      6          1           0        1.854058    0.714232    0.892481
      7          6           0       -1.722901   -0.099701    0.000331
      8          1           0       -1.854173   -0.714181    0.892523
      9          1           0       -2.447943    0.712186    0.000481
     10          1           0       -1.854876   -0.714790   -0.891311
 ---------------------------------------------------------------------
 Rotational constants (GHZ):     33.7266447      4.7015679      4.3543811
 Standard basis: CC-pVDZ (5D, 7F)
 There are    90 symmetry adapted cartesian basis functions of A   symmetry.
 There are    86 symmetry adapted basis functions of A   symmetry.
    86 basis functions,   174 primitive gaussians,    90 cartesian basis functions
    17 alpha electrons       17 beta electrons
       nuclear repulsion energy       136.1281331506 Hartrees.
 NAtoms=   10 NActive=   10 NUniq=   10 SFac= 1.00D+00 NAtFMM=   60 NAOKFM=F Big=F
 Integral buffers will be    131072 words long.
 Raffenetti 1 integral format.
 Two-electron integral symmetry is turned on.
 One-electron integrals computed using PRISM.
 NBasis=    86 RedAO= T EigKep=  1.42D-02  NBF=    86
 NBsUse=    86 1.00D-06 EigRej= -1.00D+00 NBFU=    86
 ExpMin= 1.22D-01 ExpMax= 1.17D+04 ExpMxC= 4.01D+02 IAcc=1 IRadAn=         1 AccDes= 0.00D+00
 Harris functional with IExCor=  205 and IRadAn=       1 diagonalized for initial guess.
 HarFok:  IExCor=  205 AccDes= 0.00D+00 IRadAn=         1 IDoV= 1 UseB2=F ITyADJ=14
 ICtDFT=  3500011 ScaDFX=  1.000000  1.000000  1.000000  1.000000
 FoFCou: FMM=F IPFlag=           0 FMFlag=      100000 FMFlg1=           0
         NFxFlg=           0 DoJE=T BraDBF=F KetDBF=T FulRan=T
         wScrn=  0.000000 ICntrl=     500 IOpCl=  0 I1Cent=   200000004 NGrid=           0
         NMat0=    1 NMatS0=      1 NMatT0=    0 NMatD0=    1 NMtDS0=    0 NMtDT0=    0
 Petite list used in FoFCou.
 Keep R1 ints in memory in canonical form, NReq=7942934.
 Requested convergence on RMS density matrix=1.00D-08 within 128 cycles.
 Requested convergence on MAX density matrix=1.00D-06.
 Requested convergence on             energy=1.00D-06.
 No special actions if energy rises.
 SCF Done:  E(RHF) =  -228.847027236     A.U. after   10 cycles
            NFock= 10  Conv=0.98D-08     -V/T= 2.0001

 **********************************************************************

            Population analysis using the SCF density.

 **********************************************************************

 Orbital symmetries:
       Occupied  (A) (A) (A) (A) (A) (A) (A) (A) (A) (A) (A) (A)
                 (A) (A) (A) (A) (A)
       Virtual   (A) (A) (A) (A) (A) (A) (A) (A) (A) (A) (A) (A)
                 (A) (A) (A) (A) (A) (A) (A) (A) (A) (A) (A) (A)
                 (A) (A) (A) (A) (A) (A) (A) (A) (A) (A) (A) (A)
                 (A) (A) (A) (A) (A) (A) (A) (A) (A) (A) (A) (A)
                 (A) (A) (A) (A) (A) (A) (A) (A) (A) (A) (A) (A)
                 (A) (A) (A) (A) (A) (A) (A) (A) (A)
 The electronic state is 1-A.
 Alpha  occ. eigenvalues --  -20.60768 -20.60733 -11.27753 -11.27752  -1.50158
 Alpha  occ. eigenvalues --   -1.23939  -0.93191  -0.89912  -0.69209  -0.68201
 Alpha  occ. eigenvalues --   -0.67449  -0.60208  -0.55562  -0.54924  -0.49842
 Alpha  occ. eigenvalues --   -0.48840  -0.40402
 Alpha virt. eigenvalues --    0.20105   0.20833   0.25256   0.26105   0.26492
 Alpha virt. eigenvalues --    0.28447   0.29759   0.32017   0.40531   0.62543
 Alpha virt. eigenvalues --    0.63155   0.64384   0.65601   0.73316   0.79282
 Alpha virt. eigenvalues --    0.85661   0.85898   0.86195   0.86841   0.87536
 Alpha virt. eigenvalues --    0.91545   1.09365   1.10815   1.11667   1.16040
 Alpha virt. eigenvalues --    1.16495   1.17430   1.37917   1.40571   1.42015
 Alpha virt. eigenvalues --    1.42093   1.54443   1.66803   1.67026   1.68149
 Alpha virt. eigenvalues --    1.83759   1.87291   1.87514   1.89002   1.92646
 Alpha virt. eigenvalues --    1.93590   1.94411   1.96543   2.00975   2.05034
 Alpha virt. eigenvalues --    2.14139   2.20828   2.31658   2.34257   2.35296
 Alpha virt. eigenvalues --    2.37161   2.37575   2.49041   2.60424   2.70247
 Alpha virt. eigenvalues --    2.74212   2.75399   2.76297   2.77975   2.83980
 Alpha virt. eigenvalues --    2.97064   3.06518   3.31722   3.38861   3.44114
 Alpha virt. eigenvalues --    3.48388   3.59714   3.69866   4.28543
          Condensed to atoms (all electrons):
               1          2          3          4          5          6
     1  O    8.066276   0.074829  -0.061531   0.003604   0.004417   0.004424
     2  O    0.074829   8.066301   0.291176  -0.016670  -0.033112  -0.033104
     3  C   -0.061531   0.291176   4.316403   0.412060   0.414585   0.414573
     4  H    0.003604  -0.016670   0.412060   0.608330  -0.023616  -0.023619
     5  H    0.004417  -0.033112   0.414585  -0.023616   0.649301  -0.038984
     6  H    0.004424  -0.033104   0.414573  -0.023619  -0.038984   0.649319
     7  C    0.291183  -0.061533   0.006988  -0.000374   0.000242   0.000244
     8  H   -0.033099   0.004422   0.000244   0.000015   0.000308  -0.000393
     9  H   -0.016677   0.003605  -0.000374   0.000019   0.000015   0.000015
    10  H   -0.033105   0.004416   0.000242   0.000015  -0.000392   0.000308
               7          8          9         10
     1  O    0.291183  -0.033099  -0.016677  -0.033105
     2  O   -0.061533   0.004422   0.003605   0.004416
     3  C    0.006988   0.000244  -0.000374   0.000242
     4  H   -0.000374   0.000015   0.000019   0.000015
     5  H    0.000242   0.000308   0.000015  -0.000392
     6  H    0.000244  -0.000393   0.000015   0.000308
     7  C    4.316396   0.414570   0.412061   0.414584
     8  H    0.414570   0.649322  -0.023620  -0.038988
     9  H    0.412061  -0.023620   0.608341  -0.023612
    10  H    0.414584  -0.038988  -0.023612   0.649292
 Mulliken charges:
               1
     1  O   -0.300320
     2  O   -0.300331
     3  C    0.205635
     4  H    0.040235
     5  H    0.027236
     6  H    0.027219
     7  C    0.205639
     8  H    0.027219
     9  H    0.040227
    10  H    0.027240
 Sum of Mulliken charges =   0.00000
 Mulliken charges with hydrogens summed into heavy atoms:
               1
     1  O   -0.300320
     2  O   -0.300331
     3  C    0.300326
     7  C    0.300325
 Electronic spatial extent (au):  <R**2>=            321.0127
 Charge=              0.0000 electrons
 Dipole moment (field-independent basis, Debye):
    X=              0.0000    Y=              0.0000    Z=              0.0021  Tot=              0.0021
 Quadrupole moment (field-independent basis, Debye-Ang):
   XX=            -18.1031   YY=            -26.0221   ZZ=            -24.9962
   XY=              0.4878   XZ=              0.0000   YZ=              0.0001
 Traceless Quadrupole moment (field-independent basis, Debye-Ang):
   XX=              4.9373   YY=             -2.9817   ZZ=             -1.9557
   XY=              0.4878   XZ=              0.0000   YZ=              0.0001
 Octapole moment (field-independent basis, Debye-Ang**2):
  XXX=              0.0008  YYY=              0.0001  ZZZ=             -0.0013  XYY=             -0.0002
  XXY=             -0.0008  XXZ=              0.0020  XZZ=             -0.0001  YZZ=              0.0000
  YYZ=             -0.0007  XYZ=             -0.0018
 Hexadecapole moment (field-independent basis, Debye-Ang**3):
 XXXX=           -303.4572 YYYY=            -53.9331 ZZZZ=            -35.4740 XXXY=             -7.2291
 XXXZ=              0.0002 YYYX=             -3.2116 YYYZ=              0.0002 ZZZX=             -0.0001
 ZZZY=              0.0001 XXYY=            -58.6851 XXZZ=            -60.3687 YYZZ=            -14.3793
 XXYZ=              0.0001 YYXZ=              0.0003 ZZXY=              1.6681
 N-N= 1.361281331506D+02 E-N=-8.118002692490D+02  KE= 2.288268287170D+02
 Variable Step   Value    
 -------- ---- -----------
    21       1   -3.053138
 ---------------------------------------------------------------------------------------------------
                            Z-MATRIX (ANGSTROMS AND DEGREES)
   CD    Cent   Atom    N1       Length/X        N2       Alpha/Y        N3        Beta/Z          J
 ---------------------------------------------------------------------------------------------------
      1      1  O 
      2      2  O        1   1.394786(     1)
      3      3  C        2   1.395751(     2)      1  106.223(    10)
      4      4  H        3   1.088515(     3)      2  105.631(    11)      1  179.989(    18)      0
      5      5  H        3   1.091238(     4)      2  110.878(    12)      1  -61.029(    19)      0
      6      6  H        3   1.091231(     5)      2  110.885(    13)      1   61.015(    20)      0
      7      7  C        1   1.395751(     6)      2  106.222(    14)      3 -174.932(    21)      0
      8      8  H        7   1.091249(     7)      1  110.889(    15)      2   61.023(    22)      0
      9      9  H        7   1.088507(     8)      1  105.623(    16)      2  179.991(    23)      0
     10     10  H        7   1.091227(     9)      1  110.883(    17)      2  -61.027(    24)      0
 ---------------------------------------------------------------------------------------------------
                         Z-Matrix orientation:                         
 ---------------------------------------------------------------------
 Center     Atomic      Atomic             Coordinates (Angstroms)
 Number     Number       Type             X           Y           Z
 ---------------------------------------------------------------------
      1          8           0        0.000000    0.000000    0.000000
      2          8           0        0.000000    0.000000    1.394786
      3          6           0        1.340174    0.000000    1.784727
      4          1           0        1.328927    0.000205    2.873183
      5          1           0        1.851558   -0.892000    1.419182
      6          1           0        1.851720    0.891837    1.419030
      7          6           0       -1.334943    0.118390   -0.389915
      8          1           0       -1.765741    1.051987   -0.024353
      9          1           0       -1.323594    0.117541   -1.478362
     10          1           0       -1.923199   -0.724885   -0.024378
 ---------------------------------------------------------------------
                    Distance matrix (angstroms):
                    1          2          3          4          5
     1  O    0.000000
     2  O    1.394786   0.000000
     3  C    2.231886   1.395751   0.000000
     4  H    3.165632   1.987889   1.088515   0.000000
     5  H    2.497601   2.055365   1.091238   1.784179   0.000000
     6  H    2.497576   2.055439   1.091231   1.784063   1.783837
     7  C    1.395751   2.231871   3.449541   4.214022   3.800988
     8  H    2.055507   2.497694   3.745151   4.367944   4.352899
     9  H    1.987780   3.165549   4.213932   5.097605   4.415487
    10  H    2.055419   2.497635   3.801042   4.415646   4.044821
                    6          7          8          9         10
     6  H    0.000000
     7  C    3.745040   0.000000
     8  H    3.898080   1.091249   0.000000
     9  H    4.367726   1.088507   1.784047   0.000000
    10  H    4.352842   1.091227   1.783834   1.784175   0.000000
 Stoichiometry    C2H6O2
 Framework group  C1[X(C2H6O2)]
 Deg. of freedom    24
 Full point group                 C1      NOp   1
 Largest Abelian subgroup         C1      NOp   1
 Largest concise Abelian subgroup C1      NOp   1
                         Standard orientation:                         
 ---------------------------------------------------------------------
 Center     Atomic      Atomic             Coordinates (Angstroms)
 Number     Number       Type             X           Y           Z
 ---------------------------------------------------------------------
      1          8           0       -0.470227    0.515022   -0.034003
      2          8           0        0.470226   -0.515015   -0.034006
      3          6           0        1.721887    0.099763    0.025253
      4          1           0        2.447489   -0.711635    0.024958
      5          1           0        1.881823    0.740780   -0.843263
      6          1           0        1.823593    0.687816    0.938837
      7          6           0       -1.721878   -0.099781    0.025244
      8          1           0       -1.823707   -0.687768    0.938878
      9          1           0       -2.447377    0.711697    0.024899
     10          1           0       -1.881871   -0.740837   -0.843218
 ---------------------------------------------------------------------
 Rotational constants (GHZ):     33.6197409      4.7036887      4.3585863
 Standard basis: CC-pVDZ (5D, 7F)
 There are    90 symmetry adapted cartesian basis functions of A   symmetry.
 There are    86 symmetry adapted basis functions of A   symmetry.
    86 basis functions,   174 primitive gaussians,    90 cartesian basis functions
    17 alpha electrons       17 beta electrons
       nuclear repulsion energy       136.1353585099 Hartrees.
 NAtoms=   10 NActive=   10 NUniq=   10 SFac= 1.00D+00 NAtFMM=   60 NAOKFM=F Big=F
 Integral buffers will be    131072 words long.
 Raffenetti 1 integral format.
 Two-electron integral symmetry is turned on.
 One-electron integrals computed using PRISM.
 NBasis=    86 RedAO= T EigKep=  1.43D-02  NBF=    86
 NBsUse=    86 1.00D-06 EigRej= -1.00D+00 NBFU=    86
 Initial guess from the checkpoint file:  "ch3ooch3_rigid_scan.chk"
 B after Tr=     0.000000    0.000000    0.000000
         Rot=    1.000000   -0.000001    0.000000   -0.000086 Ang=  -0.01 deg.
 ExpMin= 1.22D-01 ExpMax= 1.17D+04 ExpMxC= 4.01D+02 IAcc=1 IRadAn=         1 AccDes= 0.00D+00
 Harris functional with IExCor=  205 and IRadAn=       1 diagonalized for initial guess.
 HarFok:  IExCor=  205 AccDes= 0.00D+00 IRadAn=         1 IDoV= 1 UseB2=F ITyADJ=14
 ICtDFT=  3500011 ScaDFX=  1.000000  1.000000  1.000000  1.000000
 FoFCou: FMM=F IPFlag=           0 FMFlag=      100000 FMFlg1=           0
         NFxFlg=           0 DoJE=T BraDBF=F KetDBF=T FulRan=T
         wScrn=  0.000000 ICntrl=     500 IOpCl=  0 I1Cent=   200000004 NGrid=           0
         NMat0=    1 NMatS0=      1 NMatT0=    0 NMatD0=    1 NMtDS0=    0 NMtDT0=    0
 Petite list used in FoFCou.
 Keep R1 ints in memory in canonical form, NReq=7942962.
 Requested convergence on RMS density matrix=1.00D-08 within 128 cycles.
 Requested convergence on MAX density matrix=1.00D-06.
 Requested convergence on             energy=1.00D-06.
 No special actions if energy rises.
 SCF Done:  E(RHF) =  -228.847025383     A.U. after   11 cycles
            NFock= 11  Conv=0.68D-08     -V/T= 2.0001
 Variable Step   Value    
 -------- ---- -----------
    21       2   -2.965872
 ---------------------------------------------------------------------------------------------------
                            Z-MATRIX (ANGSTROMS AND DEGREES)
   CD    Cent   Atom    N1       Length/X        N2       Alpha/Y        N3        Beta/Z          J
 ---------------------------------------------------------------------------------------------------
      1      1  O 
      2      2  O        1   1.394786(     1)
      3      3  C        2   1.395751(     2)      1  106.223(    10)
      4      4  H        3   1.088515(     3)      2  105.631(    11)      1  179.989(    18)      0
      5      5  H        3   1.091238(     4)      2  110.878(    12)      1  -61.029(    19)      0
      6      6  H        3   1.091231(     5)      2  110.885(    13)      1   61.015(    20)      0
      7      7  C        1   1.395751(     6)      2  106.222(    14)      3 -169.932(    21)      0
      8      8  H        7   1.091249(     7)      1  110.889(    15)      2   61.023(    22)      0
      9      9  H        7   1.088507(     8)      1  105.623(    16)      2  179.991(    23)      0
     10     10  H        7   1.091227(     9)      1  110.883(    17)      2  -61.027(    24)      0
 ---------------------------------------------------------------------------------------------------
                         Z-Matrix orientation:                         
 ---------------------------------------------------------------------
 Center     Atomic      Atomic             Coordinates (Angstroms)
 Number     Number       Type             X           Y           Z
 ---------------------------------------------------------------------
      1          8           0        0.000000    0.000000    0.000000
      2          8           0        0.000000    0.000000    1.394786
      3          6           0        1.340174    0.000000    1.784727
      4          1           0        1.328927    0.000205    2.873183
      5          1           0        1.851558   -0.892000    1.419182
      6          1           0        1.851720    0.891837    1.419030
      7          6           0       -1.319544    0.234288   -0.389915
      8          1           0       -1.667335    1.201878   -0.024353
      9          1           0       -1.308313    0.232453   -1.478362
     10          1           0       -1.979058   -0.554509   -0.024378
 ---------------------------------------------------------------------
                    Distance matrix (angstroms):
                    1          2          3          4          5
     1  O    0.000000
     2  O    1.394786   0.000000
     3  C    2.231886   1.395751   0.000000
     4  H    3.165632   1.987889   1.088515   0.000000
     5  H    2.497601   2.055365   1.091238   1.784179   0.000000
     6  H    2.497576   2.055439   1.091231   1.784063   1.783837
     7  C    1.395751   2.231871   3.443554   4.209157   3.820634
     8  H    2.055507   2.497694   3.709770   4.337894   4.341743
     9  H    1.987780   3.165549   4.209069   5.093615   4.432261
    10  H    2.055419   2.497635   3.820686   4.432418   4.107479
                    6          7          8          9         10
     6  H    0.000000
     7  C    3.709660   0.000000
     8  H    3.816180   1.091249   0.000000
     9  H    4.337681   1.088507   1.784047   0.000000
    10  H    4.341682   1.091227   1.783834   1.784175   0.000000
 Stoichiometry    C2H6O2
 Framework group  C1[X(C2H6O2)]
 Deg. of freedom    24
 Full point group                 C1      NOp   1
 Largest Abelian subgroup         C1      NOp   1
 Largest concise Abelian subgroup C1      NOp   1
                         Standard orientation:                         
 ---------------------------------------------------------------------
 Center     Atomic      Atomic             Coordinates (Angstroms)
 Number     Number       Type             X           Y           Z
 ---------------------------------------------------------------------
      1          8           0       -0.471076    0.514246   -0.067481
      2          8           0        0.471075   -0.514239   -0.067486
      3          6           0        1.718875    0.099997    0.050118
      4          1           0        2.445831   -0.710186    0.049331
      5          1           0        1.905302    0.766516   -0.793564
      6          1           0        1.789895    0.660993    0.983406
      7          6           0       -1.718865   -0.100016    0.050109
      8          1           0       -1.790007   -0.660950    0.983445
      9          1           0       -2.445721    0.710247    0.049271
     10          1           0       -1.905347   -0.766566   -0.793520
 ---------------------------------------------------------------------
 Rotational constants (GHZ):     33.3097390      4.7099279      4.3709923
 Standard basis: CC-pVDZ (5D, 7F)
 There are    90 symmetry adapted cartesian basis functions of A   symmetry.
 There are    86 symmetry adapted basis functions of A   symmetry.
    86 basis functions,   174 primitive gaussians,    90 cartesian basis functions
    17 alpha electrons       17 beta electrons
       nuclear repulsion energy       136.1566785290 Hartrees.
 NAtoms=   10 NActive=   10 NUniq=   10 SFac= 1.00D+00 NAtFMM=   60 NAOKFM=F Big=F
 Integral buffers will be    131072 words long.
 Raffenetti 1 integral format.
 Two-electron integral symmetry is turned on.
 One-electron integrals computed using PRISM.
 NBasis=    86 RedAO= T EigKep=  1.43D-02  NBF=    86
 NBsUse=    86 1.00D-06 EigRej= -1.00D+00 NBFU=    86
 Initial guess from the checkpoint file:  "ch3ooch3_rigid_scan.chk"
 B after Tr=     0.000000    0.000000    0.000000
         Rot=    1.000000   -0.000001    0.000000   -0.000254 Ang=  -0.03 deg.
 ExpMin= 1.22D-01 ExpMax= 1.17D+04 ExpMxC= 4.01D+02 IAcc=1 IRadAn=         1 AccDes= 0.00D+00
 Harris functional with IExCor=  205 and IRadAn=       1 diagonalized for initial guess.
 HarFok:  IExCor=  205 AccDes= 0.00D+00 IRadAn=         1 IDoV= 1 UseB2=F ITyADJ=14
 ICtDFT=  3500011 ScaDFX=  1.000000  1.000000  1.000000  1.000000
 FoFCou: FMM=F IPFlag=           0 FMFlag=      100000 FMFlg1=           0
         NFxFlg=           0 DoJE=T BraDBF=F KetDBF=T FulRan=T
         wScrn=  0.000000 ICntrl=     500 IOpCl=  0 I1Cent=   200000004 NGrid=           0
         NMat0=    1 NMatS0=      1 NMatT0=    0 NMatD0=    1 NMtDS0=    0 NMtDT0=    0
 Petite list used in FoFCou.
 Keep R1 ints in memory in canonical form, NReq=7942962.
 Requested convergence on RMS density matrix=1.00D-08 within 128 cycles.
 Requested convergence on MAX density matrix=1.00D-06.
 Requested convergence on             energy=1.00D-06.
 No special actions if energy rises.
 SCF Done:  E(RHF) =  -228.847020097     A.U. after   11 cycles
            NFock= 11  Conv=0.64D-08     -V/T= 2.0001
 Variable Step   Value    
 -------- ---- -----------
    21       3   -2.878605
 ---------------------------------------------------------------------------------------------------
                            Z-MATRIX (ANGSTROMS AND DEGREES)
   CD    Cent   Atom    N1       Length/X        N2       Alpha/Y        N3        Beta/Z          J
 ---------------------------------------------------------------------------------------------------
      1      1  O 
      2      2  O        1   1.394786(     1)
      3      3  C        2   1.395751(     2)      1  106.223(    10)
      4      4  H        3   1.088515(     3)      2  105.631(    11)      1  179.989(    18)      0
      5      5  H        3   1.091238(     4)      2  110.878(    12)      1  -61.029(    19)      0
      6      6  H        3   1.091231(     5)      2  110.885(    13)      1   61.015(    20)      0
      7      7  C        1   1.395751(     6)      2  106.222(    14)      3 -164.932(    21)      0
      8      8  H        7   1.091249(     7)      1  110.889(    15)      2   61.023(    22)      0
      9      9  H        7   1.088507(     8)      1  105.623(    16)      2  179.991(    23)      0
     10     10  H        7   1.091227(     9)      1  110.883(    17)      2  -61.027(    24)      0
 ---------------------------------------------------------------------------------------------------
                         Z-Matrix orientation:                         
 ---------------------------------------------------------------------
 Center     Atomic      Atomic             Coordinates (Angstroms)
 Number     Number       Type             X           Y           Z
 ---------------------------------------------------------------------
      1          8           0        0.000000    0.000000    0.000000
      2          8           0        0.000000    0.000000    1.394786
      3          6           0        1.340174    0.000000    1.784727
      4          1           0        1.328927    0.000205    2.873183
      5          1           0        1.851558   -0.892000    1.419182
      6          1           0        1.851720    0.891837    1.419030
      7          6           0       -1.294104    0.348402   -0.389915
      8          1           0       -1.556240    1.342622   -0.024353
      9          1           0       -1.283074    0.345595   -1.478362
     10          1           0       -2.019856   -0.379912   -0.024378
 ---------------------------------------------------------------------
                    Distance matrix (angstroms):
                    1          2          3          4          5
     1  O    0.000000
     2  O    1.394786   0.000000
     3  C    2.231886   1.395751   0.000000
     4  H    3.165632   1.987889   1.088515   0.000000
     5  H    2.497601   2.055365   1.091238   1.784179   0.000000
     6  H    2.497576   2.055439   1.091231   1.784063   1.783837
     7  C    1.395751   2.231871   3.433638   4.201112   3.834921
     8  H    2.055507   2.497694   3.669417   4.303718   4.323242
     9  H    1.987780   3.165549   4.201026   5.087022   4.444471
    10  H    2.055419   2.497635   3.834970   4.444625   4.163405
                    6          7          8          9         10
     6  H    0.000000
     7  C    3.669307   0.000000
     8  H    3.728372   1.091249   0.000000
     9  H    4.303510   1.088507   1.784047   0.000000
    10  H    4.323179   1.091227   1.783834   1.784175   0.000000
 Stoichiometry    C2H6O2
 Framework group  C1[X(C2H6O2)]
 Deg. of freedom    24
 Full point group                 C1      NOp   1
 Largest Abelian subgroup         C1      NOp   1
 Largest concise Abelian subgroup C1      NOp   1
                         Standard orientation:                         
 ---------------------------------------------------------------------
 Center     Atomic      Atomic             Coordinates (Angstroms)
 Number     Number       Type             X           Y           Z
 ---------------------------------------------------------------------
      1          8           0       -0.472488    0.512950   -0.100830
      2          8           0        0.472487   -0.512941   -0.100838
      3          6           0        1.713886    0.100384    0.074888
      4          1           0        2.443099   -0.707768    0.073610
      5          1           0        1.925137    0.791969   -0.742354
      6          1           0        1.753119    0.633711    1.026103
      7          6           0       -1.713877   -0.100404    0.074879
      8          1           0       -1.753231   -0.633674    1.026141
      9          1           0       -2.442992    0.707827    0.073549
     10          1           0       -1.925180   -0.792014   -0.742313
 ---------------------------------------------------------------------
 Rotational constants (GHZ):     32.8106641      4.7202569      4.3916440
 Standard basis: CC-pVDZ (5D, 7F)
 There are    90 symmetry adapted cartesian basis functions of A   symmetry.
 There are    86 symmetry adapted basis functions of A   symmetry.
    86 basis functions,   174 primitive gaussians,    90 cartesian basis functions
    17 alpha electrons       17 beta electrons
       nuclear repulsion energy       136.1921710365 Hartrees.
 NAtoms=   10 NActive=   10 NUniq=   10 SFac= 1.00D+00 NAtFMM=   60 NAOKFM=F Big=F
 Integral buffers will be    131072 words long.
 Raffenetti 1 integral format.
 Two-electron integral symmetry is turned on.
 One-electron integrals computed using PRISM.
 NBasis=    86 RedAO= T EigKep=  1.44D-02  NBF=    86
 NBsUse=    86 1.00D-06 EigRej= -1.00D+00 NBFU=    86
 Initial guess from the checkpoint file:  "ch3ooch3_rigid_scan.chk"
 B after Tr=     0.000000    0.000000    0.000000
         Rot=    1.000000   -0.000001    0.000000   -0.000423 Ang=  -0.05 deg.
 ExpMin= 1.22D-01 ExpMax= 1.17D+04 ExpMxC= 4.01D+02 IAcc=1 IRadAn=         1 AccDes= 0.00D+00
 Harris functional with IExCor=  205 and IRadAn=       1 diagonalized for initial guess.
 HarFok:  IExCor=  205 AccDes= 0.00D+00 IRadAn=         1 IDoV= 1 UseB2=F ITyADJ=14
 ICtDFT=  3500011 ScaDFX=  1.000000  1.000000  1.000000  1.000000
 FoFCou: FMM=F IPFlag=           0 FMFlag=      100000 FMFlg1=           0
         NFxFlg=           0 DoJE=T BraDBF=F KetDBF=T FulRan=T
         wScrn=  0.000000 ICntrl=     500 IOpCl=  0 I1Cent=   200000004 NGrid=           0
         NMat0=    1 NMatS0=      1 NMatT0=    0 NMatD0=    1 NMtDS0=    0 NMtDT0=    0
 Petite list used in FoFCou.
 Keep R1 ints in memory in canonical form, NReq=7942962.
 Requested convergence on RMS density matrix=1.00D-08 within 128 cycles.
 Requested convergence on MAX density matrix=1.00D-06.
 Requested convergence on             energy=1.00D-06.
 No special actions if energy rises.
 SCF Done:  E(RHF) =  -228.847011565     A.U. after   11 cycles
            NFock= 11  Conv=0.64D-08     -V/T= 2.0001
 Variable Step   Value    
 -------- ---- -----------
    21       4   -2.791339
 ---------------------------------------------------------------------------------------------------
                            Z-MATRIX (ANGSTROMS AND DEGREES)
   CD    Cent   Atom    N1       Length/X        N2       Alpha/Y        N3        Beta/Z          J
 ---------------------------------------------------------------------------------------------------
      1      1  O 
      2      2  O        1   1.394786(     1)
      3      3  C        2   1.395751(     2)      1  106.223(    10)
      4      4  H        3   1.088515(     3)      2  105.631(    11)      1  179.989(    18)      0
      5      5  H        3   1.091238(     4)      2  110.878(    12)      1  -61.029(    19)      0
      6      6  H        3   1.091231(     5)      2  110.885(    13)      1   61.015(    20)      0
      7      7  C        1   1.395751(     6)      2  106.222(    14)      3 -159.932(    21)      0
      8      8  H        7   1.091249(     7)      1  110.889(    15)      2   61.023(    22)      0
      9      9  H        7   1.088507(     8)      1  105.623(    16)      2  179.991(    23)      0
     10     10  H        7   1.091227(     9)      1  110.883(    17)      2  -61.027(    24)      0
 ---------------------------------------------------------------------------------------------------
                         Z-Matrix orientation:                         
 ---------------------------------------------------------------------
 Center     Atomic      Atomic             Coordinates (Angstroms)
 Number     Number       Type             X           Y           Z
 ---------------------------------------------------------------------
      1          8           0        0.000000    0.000000    0.000000
      2          8           0        0.000000    0.000000    1.394786
      3          6           0        1.340174    0.000000    1.784727
      4          1           0        1.328927    0.000205    2.873183
      5          1           0        1.851558   -0.892000    1.419182
      6          1           0        1.851720    0.891837    1.419030
      7          6           0       -1.258814    0.459865   -0.389915
      8          1           0       -1.433301    1.473148   -0.024353
      9          1           0       -1.248071    0.456107   -1.478362
     10          1           0       -2.045281   -0.202424   -0.024378
 ---------------------------------------------------------------------
                    Distance matrix (angstroms):
                    1          2          3          4          5
     1  O    0.000000
     2  O    1.394786   0.000000
     3  C    2.231886   1.395751   0.000000
     4  H    3.165632   1.987889   1.088515   0.000000
     5  H    2.497601   2.055365   1.091238   1.784179   0.000000
     6  H    2.497576   2.055439   1.091231   1.784063   1.783837
     7  C    1.395751   2.231871   3.419837   4.189928   3.843798
     8  H    2.055507   2.497694   3.624238   4.265581   4.297443
     9  H    1.987780   3.165549   4.189845   5.077865   4.452062
    10  H    2.055419   2.497635   3.843845   4.452213   4.212450
                    6          7          8          9         10
     6  H    0.000000
     7  C    3.624128   0.000000
     8  H    3.634920   1.091249   0.000000
     9  H    4.265378   1.088507   1.784047   0.000000
    10  H    4.297378   1.091227   1.783834   1.784175   0.000000
 Stoichiometry    C2H6O2
 Framework group  C1[X(C2H6O2)]
 Deg. of freedom    24
 Full point group                 C1      NOp   1
 Largest Abelian subgroup         C1      NOp   1
 Largest concise Abelian subgroup C1      NOp   1
                         Standard orientation:                         
 ---------------------------------------------------------------------
 Center     Atomic      Atomic             Coordinates (Angstroms)
 Number     Number       Type             X           Y           Z
 ---------------------------------------------------------------------
      1          8           0       -0.474463    0.511123   -0.133986
      2          8           0        0.474462   -0.511114   -0.133998
      3          6           0        1.706941    0.100922    0.099516
      4          1           0        2.439316   -0.704366    0.097749
      5          1           0        1.941213    0.817167   -0.689730
      6          1           0        1.713435    0.605912    1.066847
      7          6           0       -1.706932   -0.100942    0.099506
      8          1           0       -1.713546   -0.605882    1.066882
      9          1           0       -2.439211    0.704421    0.097687
     10          1           0       -1.941255   -0.817207   -0.689692
 ---------------------------------------------------------------------
 Rotational constants (GHZ):     32.1441269      4.7346277      4.4206153
 Standard basis: CC-pVDZ (5D, 7F)
 There are    90 symmetry adapted cartesian basis functions of A   symmetry.
 There are    86 symmetry adapted basis functions of A   symmetry.
    86 basis functions,   174 primitive gaussians,    90 cartesian basis functions
    17 alpha electrons       17 beta electrons
       nuclear repulsion energy       136.2419648530 Hartrees.
 NAtoms=   10 NActive=   10 NUniq=   10 SFac= 1.00D+00 NAtFMM=   60 NAOKFM=F Big=F
 Integral buffers will be    131072 words long.
 Raffenetti 1 integral format.
 Two-electron integral symmetry is turned on.
 One-electron integrals computed using PRISM.
 NBasis=    86 RedAO= T EigKep=  1.45D-02  NBF=    86
 NBsUse=    86 1.00D-06 EigRej= -1.00D+00 NBFU=    86
 Initial guess from the checkpoint file:  "ch3ooch3_rigid_scan.chk"
 B after Tr=     0.000000    0.000000    0.000000
         Rot=    1.000000   -0.000001    0.000000   -0.000596 Ang=  -0.07 deg.
 ExpMin= 1.22D-01 ExpMax= 1.17D+04 ExpMxC= 4.01D+02 IAcc=1 IRadAn=         1 AccDes= 0.00D+00
 Harris functional with IExCor=  205 and IRadAn=       1 diagonalized for initial guess.
 HarFok:  IExCor=  205 AccDes= 0.00D+00 IRadAn=         1 IDoV= 1 UseB2=F ITyADJ=14
 ICtDFT=  3500011 ScaDFX=  1.000000  1.000000  1.000000  1.000000
 FoFCou: FMM=F IPFlag=           0 FMFlag=      100000 FMFlg1=           0
         NFxFlg=           0 DoJE=T BraDBF=F KetDBF=T FulRan=T
         wScrn=  0.000000 ICntrl=     500 IOpCl=  0 I1Cent=   200000004 NGrid=           0
         NMat0=    1 NMatS0=      1 NMatT0=    0 NMatD0=    1 NMtDS0=    0 NMtDT0=    0
 Petite list used in FoFCou.
 Keep R1 ints in memory in canonical form, NReq=7942990.
 Requested convergence on RMS density matrix=1.00D-08 within 128 cycles.
 Requested convergence on MAX density matrix=1.00D-06.
 Requested convergence on             energy=1.00D-06.
 No special actions if energy rises.
 SCF Done:  E(RHF) =  -228.846999994     A.U. after   11 cycles
            NFock= 11  Conv=0.64D-08     -V/T= 2.0001
 Variable Step   Value    
 -------- ---- -----------
    21       5   -2.704072
 ---------------------------------------------------------------------------------------------------
                            Z-MATRIX (ANGSTROMS AND DEGREES)
   CD    Cent   Atom    N1       Length/X        N2       Alpha/Y        N3        Beta/Z          J
 ---------------------------------------------------------------------------------------------------
      1      1  O 
      2      2  O        1   1.394786(     1)
      3      3  C        2   1.395751(     2)      1  106.223(    10)
      4      4  H        3   1.088515(     3)      2  105.631(    11)      1  179.989(    18)      0
      5      5  H        3   1.091238(     4)      2  110.878(    12)      1  -61.029(    19)      0
      6      6  H        3   1.091231(     5)      2  110.885(    13)      1   61.015(    20)      0
      7      7  C        1   1.395751(     6)      2  106.222(    14)      3 -154.932(    21)      0
      8      8  H        7   1.091249(     7)      1  110.889(    15)      2   61.023(    22)      0
      9      9  H        7   1.088507(     8)      1  105.623(    16)      2  179.991(    23)      0
     10     10  H        7   1.091227(     9)      1  110.883(    17)      2  -61.027(    24)      0
 ---------------------------------------------------------------------------------------------------
                         Z-Matrix orientation:                         
 ---------------------------------------------------------------------
 Center     Atomic      Atomic             Coordinates (Angstroms)
 Number     Number       Type             X           Y           Z
 ---------------------------------------------------------------------
      1          8           0        0.000000    0.000000    0.000000
      2          8           0        0.000000    0.000000    1.394786
      3          6           0        1.340174    0.000000    1.784727
      4          1           0        1.328927    0.000205    2.873183
      5          1           0        1.851558   -0.892000    1.419182
      6          1           0        1.851720    0.891837    1.419030
      7          6           0       -1.213944    0.567828   -0.389915
      8          1           0       -1.299453    1.592463   -0.024353
      9          1           0       -1.203570    0.563148   -1.478362
     10          1           0       -2.055141   -0.023396   -0.024378
 ---------------------------------------------------------------------
                    Distance matrix (angstroms):
                    1          2          3          4          5
     1  O    0.000000
     2  O    1.394786   0.000000
     3  C    2.231886   1.395751   0.000000
     4  H    3.165632   1.987889   1.088515   0.000000
     5  H    2.497601   2.055365   1.091238   1.784179   0.000000
     6  H    2.497576   2.055439   1.091231   1.784063   1.783837
     7  C    1.395751   2.231871   3.402207   4.175667   3.847237
     8  H    2.055507   2.497694   3.574401   4.223670   4.264414
     9  H    1.987780   3.165549   4.175586   5.066201   4.455000
    10  H    2.055419   2.497635   3.847281   4.455146   4.254484
                    6          7          8          9         10
     6  H    0.000000
     7  C    3.574292   0.000000
     8  H    3.536118   1.091249   0.000000
     9  H    4.223472   1.088507   1.784047   0.000000
    10  H    4.264345   1.091227   1.783834   1.784175   0.000000
 Stoichiometry    C2H6O2
 Framework group  C1[X(C2H6O2)]
 Deg. of freedom    24
 Full point group                 C1      NOp   1
 Largest Abelian subgroup         C1      NOp   1
 Largest concise Abelian subgroup C1      NOp   1
                         Standard orientation:                         
 ---------------------------------------------------------------------
 Center     Atomic      Atomic             Coordinates (Angstroms)
 Number     Number       Type             X           Y           Z
 ---------------------------------------------------------------------
      1          8           0       -0.477006    0.508752   -0.166888
      2          8           0        0.477005   -0.508740   -0.166904
      3          6           0        1.698070    0.101606    0.123954
      4          1           0        2.434516   -0.699960    0.121701
      5          1           0        1.953424    0.842132   -0.635793
      6          1           0        1.671024    0.577531    1.105560
      7          6           0       -1.698061   -0.101628    0.123944
      8          1           0       -1.671133   -0.577510    1.105593
      9          1           0       -2.434414    0.700012    0.121640
     10          1           0       -1.953464   -0.842166   -0.635760
 ---------------------------------------------------------------------
 Rotational constants (GHZ):     31.3371665      4.7529716      4.4580080
 Standard basis: CC-pVDZ (5D, 7F)
 There are    90 symmetry adapted cartesian basis functions of A   symmetry.
 There are    86 symmetry adapted basis functions of A   symmetry.
    86 basis functions,   174 primitive gaussians,    90 cartesian basis functions
    17 alpha electrons       17 beta electrons
       nuclear repulsion energy       136.3062390614 Hartrees.
 NAtoms=   10 NActive=   10 NUniq=   10 SFac= 1.00D+00 NAtFMM=   60 NAOKFM=F Big=F
 Integral buffers will be    131072 words long.
 Raffenetti 1 integral format.
 Two-electron integral symmetry is turned on.
 One-electron integrals computed using PRISM.
 NBasis=    86 RedAO= T EigKep=  1.46D-02  NBF=    86
 NBsUse=    86 1.00D-06 EigRej= -1.00D+00 NBFU=    86
 Initial guess from the checkpoint file:  "ch3ooch3_rigid_scan.chk"
 B after Tr=     0.000000    0.000000    0.000000
         Rot=    1.000000   -0.000002    0.000000   -0.000771 Ang=  -0.09 deg.
 ExpMin= 1.22D-01 ExpMax= 1.17D+04 ExpMxC= 4.01D+02 IAcc=1 IRadAn=         1 AccDes= 0.00D+00
 Harris functional with IExCor=  205 and IRadAn=       1 diagonalized for initial guess.
 HarFok:  IExCor=  205 AccDes= 0.00D+00 IRadAn=         1 IDoV= 1 UseB2=F ITyADJ=14
 ICtDFT=  3500011 ScaDFX=  1.000000  1.000000  1.000000  1.000000
 FoFCou: FMM=F IPFlag=           0 FMFlag=      100000 FMFlg1=           0
         NFxFlg=           0 DoJE=T BraDBF=F KetDBF=T FulRan=T
         wScrn=  0.000000 ICntrl=     500 IOpCl=  0 I1Cent=   200000004 NGrid=           0
         NMat0=    1 NMatS0=      1 NMatT0=    0 NMatD0=    1 NMtDS0=    0 NMtDT0=    0
 Petite list used in FoFCou.
 Keep R1 ints in memory in canonical form, NReq=7943130.
 Requested convergence on RMS density matrix=1.00D-08 within 128 cycles.
 Requested convergence on MAX density matrix=1.00D-06.
 Requested convergence on             energy=1.00D-06.
 No special actions if energy rises.
 SCF Done:  E(RHF) =  -228.846985471     A.U. after   11 cycles
            NFock= 11  Conv=0.62D-08     -V/T= 2.0001
 Variable Step   Value    
 -------- ---- -----------
    21       6   -2.616806
 ---------------------------------------------------------------------------------------------------
                            Z-MATRIX (ANGSTROMS AND DEGREES)
   CD    Cent   Atom    N1       Length/X        N2       Alpha/Y        N3        Beta/Z          J
 ---------------------------------------------------------------------------------------------------
      1      1  O 
      2      2  O        1   1.394786(     1)
      3      3  C        2   1.395751(     2)      1  106.223(    10)
      4      4  H        3   1.088515(     3)      2  105.631(    11)      1  179.989(    18)      0
      5      5  H        3   1.091238(     4)      2  110.878(    12)      1  -61.029(    19)      0
      6      6  H        3   1.091231(     5)      2  110.885(    13)      1   61.015(    20)      0
      7      7  C        1   1.395751(     6)      2  106.222(    14)      3 -149.932(    21)      0
      8      8  H        7   1.091249(     7)      1  110.889(    15)      2   61.023(    22)      0
      9      9  H        7   1.088507(     8)      1  105.623(    16)      2  179.991(    23)      0
     10     10  H        7   1.091227(     9)      1  110.883(    17)      2  -61.027(    24)      0
 ---------------------------------------------------------------------------------------------------
                         Z-Matrix orientation:                         
 ---------------------------------------------------------------------
 Center     Atomic      Atomic             Coordinates (Angstroms)
 Number     Number       Type             X           Y           Z
 ---------------------------------------------------------------------
      1          8           0        0.000000    0.000000    0.000000
      2          8           0        0.000000    0.000000    1.394786
      3          6           0        1.340174    0.000000    1.784727
      4          1           0        1.328927    0.000205    2.873183
      5          1           0        1.851558   -0.892000    1.419182
      6          1           0        1.851720    0.891837    1.419030
      7          6           0       -1.159835    0.671469   -0.389915
      8          1           0       -1.155716    1.699658   -0.024353
      9          1           0       -1.149908    0.665903   -1.478362
     10          1           0       -2.049360    0.155810   -0.024378
 ---------------------------------------------------------------------
                    Distance matrix (angstroms):
                    1          2          3          4          5
     1  O    0.000000
     2  O    1.394786   0.000000
     3  C    2.231886   1.395751   0.000000
     4  H    3.165632   1.987889   1.088515   0.000000
     5  H    2.497601   2.055365   1.091238   1.784179   0.000000
     6  H    2.497576   2.055439   1.091231   1.784063   1.783837
     7  C    1.395751   2.231871   3.380826   4.158406   3.845225
     8  H    2.055507   2.497694   3.520096   4.178194   4.224238
     9  H    1.987780   3.165549   4.158327   5.052101   4.453271
    10  H    2.055419   2.497635   3.845267   4.453413   4.289397
                    6          7          8          9         10
     6  H    0.000000
     7  C    3.519987   0.000000
     8  H    3.432289   1.091249   0.000000
     9  H    4.178002   1.088507   1.784047   0.000000
    10  H    4.224167   1.091227   1.783834   1.784175   0.000000
 Stoichiometry    C2H6O2
 Framework group  C1[X(C2H6O2)]
 Deg. of freedom    24
 Full point group                 C1      NOp   1
 Largest Abelian subgroup         C1      NOp   1
 Largest concise Abelian subgroup C1      NOp   1
                         Standard orientation:                         
 ---------------------------------------------------------------------
 Center     Atomic      Atomic             Coordinates (Angstroms)
 Number     Number       Type             X           Y           Z
 ---------------------------------------------------------------------
      1          8           0       -0.480120    0.505817   -0.199471
      2          8           0        0.480119   -0.505802   -0.199492
      3          6           0        1.687310    0.102432    0.148157
      4          1           0        2.428739   -0.694524    0.145420
      5          1           0        1.961673    0.866877   -0.580644
      6          1           0        1.626078    0.548499    1.142169
      7          6           0       -1.687301   -0.102457    0.148145
      8          1           0       -1.626186   -0.548491    1.142199
      9          1           0       -2.428640    0.694572    0.145362
     10          1           0       -1.961710   -0.866904   -0.580619
 ---------------------------------------------------------------------
 Rotational constants (GHZ):     30.4198116      4.7751975      4.5039498
 Standard basis: CC-pVDZ (5D, 7F)
 There are    90 symmetry adapted cartesian basis functions of A   symmetry.
 There are    86 symmetry adapted basis functions of A   symmetry.
    86 basis functions,   174 primitive gaussians,    90 cartesian basis functions
    17 alpha electrons       17 beta electrons
       nuclear repulsion energy       136.3852218168 Hartrees.
 NAtoms=   10 NActive=   10 NUniq=   10 SFac= 1.00D+00 NAtFMM=   60 NAOKFM=F Big=F
 Integral buffers will be    131072 words long.
 Raffenetti 1 integral format.
 Two-electron integral symmetry is turned on.
 One-electron integrals computed using PRISM.
 NBasis=    86 RedAO= T EigKep=  1.48D-02  NBF=    86
 NBsUse=    86 1.00D-06 EigRej= -1.00D+00 NBFU=    86
 Initial guess from the checkpoint file:  "ch3ooch3_rigid_scan.chk"
 B after Tr=     0.000000    0.000000    0.000000
         Rot=    1.000000   -0.000002    0.000000   -0.000952 Ang=  -0.11 deg.
 ExpMin= 1.22D-01 ExpMax= 1.17D+04 ExpMxC= 4.01D+02 IAcc=1 IRadAn=         1 AccDes= 0.00D+00
 Harris functional with IExCor=  205 and IRadAn=       1 diagonalized for initial guess.
 HarFok:  IExCor=  205 AccDes= 0.00D+00 IRadAn=         1 IDoV= 1 UseB2=F ITyADJ=14
 ICtDFT=  3500011 ScaDFX=  1.000000  1.000000  1.000000  1.000000
 FoFCou: FMM=F IPFlag=           0 FMFlag=      100000 FMFlg1=           0
         NFxFlg=           0 DoJE=T BraDBF=F KetDBF=T FulRan=T
         wScrn=  0.000000 ICntrl=     500 IOpCl=  0 I1Cent=   200000004 NGrid=           0
         NMat0=    1 NMatS0=      1 NMatT0=    0 NMatD0=    1 NMtDS0=    0 NMtDT0=    0
 Petite list used in FoFCou.
 Keep R1 ints in memory in canonical form, NReq=7943242.
 Requested convergence on RMS density matrix=1.00D-08 within 128 cycles.
 Requested convergence on MAX density matrix=1.00D-06.
 Requested convergence on             energy=1.00D-06.
 No special actions if energy rises.
 SCF Done:  E(RHF) =  -228.846967738     A.U. after   10 cycles
            NFock= 10  Conv=0.43D-08     -V/T= 2.0001
 Variable Step   Value    
 -------- ---- -----------
    21       7   -2.529540
 ---------------------------------------------------------------------------------------------------
                            Z-MATRIX (ANGSTROMS AND DEGREES)
   CD    Cent   Atom    N1       Length/X        N2       Alpha/Y        N3        Beta/Z          J
 ---------------------------------------------------------------------------------------------------
      1      1  O 
      2      2  O        1   1.394786(     1)
      3      3  C        2   1.395751(     2)      1  106.223(    10)
      4      4  H        3   1.088515(     3)      2  105.631(    11)      1  179.989(    18)      0
      5      5  H        3   1.091238(     4)      2  110.878(    12)      1  -61.029(    19)      0
      6      6  H        3   1.091231(     5)      2  110.885(    13)      1   61.015(    20)      0
      7      7  C        1   1.395751(     6)      2  106.222(    14)      3 -144.932(    21)      0
      8      8  H        7   1.091249(     7)      1  110.889(    15)      2   61.023(    22)      0
      9      9  H        7   1.088507(     8)      1  105.623(    16)      2  179.991(    23)      0
     10     10  H        7   1.091227(     9)      1  110.883(    17)      2  -61.027(    24)      0
 ---------------------------------------------------------------------------------------------------
                         Z-Matrix orientation:                         
 ---------------------------------------------------------------------
 Center     Atomic      Atomic             Coordinates (Angstroms)
 Number     Number       Type             X           Y           Z
 ---------------------------------------------------------------------
      1          8           0        0.000000    0.000000    0.000000
      2          8           0        0.000000    0.000000    1.394786
      3          6           0        1.340174    0.000000    1.784727
      4          1           0        1.328927    0.000205    2.873183
      5          1           0        1.851558   -0.892000    1.419182
      6          1           0        1.851720    0.891837    1.419030
      7          6           0       -1.096899    0.770000   -0.389915
      8          1           0       -1.003184    1.793918   -0.024353
      9          1           0       -1.087495    0.763591   -1.478362
     10          1           0       -2.027982    0.333831   -0.024378
 ---------------------------------------------------------------------
                    Distance matrix (angstroms):
                    1          2          3          4          5
     1  O    0.000000
     2  O    1.394786   0.000000
     3  C    2.231886   1.395751   0.000000
     4  H    3.165632   1.987889   1.088515   0.000000
     5  H    2.497601   2.055365   1.091238   1.784179   0.000000
     6  H    2.497576   2.055439   1.091231   1.784063   1.783837
     7  C    1.395751   2.231871   3.355785   4.138239   3.837770
     8  H    2.055507   2.497694   3.461537   4.129390   4.177020
     9  H    1.987780   3.165549   4.138163   5.035653   4.446884
    10  H    2.055419   2.497635   3.837809   4.447021   4.317100
                    6          7          8          9         10
     6  H    0.000000
     7  C    3.461428   0.000000
     8  H    3.323790   1.091249   0.000000
     9  H    4.129203   1.088507   1.784047   0.000000
    10  H    4.176947   1.091227   1.783834   1.784175   0.000000
 Stoichiometry    C2H6O2
 Framework group  C1[X(C2H6O2)]
 Deg. of freedom    24
 Full point group                 C1      NOp   1
 Largest Abelian subgroup         C1      NOp   1
 Largest concise Abelian subgroup C1      NOp   1
                         Standard orientation:                         
 ---------------------------------------------------------------------
 Center     Atomic      Atomic             Coordinates (Angstroms)
 Number     Number       Type             X           Y           Z
 ---------------------------------------------------------------------
      1          8           0       -0.483806    0.502294   -0.231673
      2          8           0        0.483805   -0.502274   -0.231702
      3          6           0        1.674707    0.103394    0.172078
      4          1           0        2.422038   -0.688030    0.168862
      5          1           0        1.965872    0.891404   -0.524388
      6          1           0        1.578806    0.518741    1.176605
      7          6           0       -1.674699   -0.103422    0.172065
      8          1           0       -1.578913   -0.518751    1.176630
      9          1           0       -2.421942    0.688072    0.168808
     10          1           0       -1.965906   -0.891424   -0.524374
 ---------------------------------------------------------------------
 Rotational constants (GHZ):     29.4227325      4.8011900      4.5585917
 Standard basis: CC-pVDZ (5D, 7F)
 There are    90 symmetry adapted cartesian basis functions of A   symmetry.
 There are    86 symmetry adapted basis functions of A   symmetry.
    86 basis functions,   174 primitive gaussians,    90 cartesian basis functions
    17 alpha electrons       17 beta electrons
       nuclear repulsion energy       136.4791885111 Hartrees.
 NAtoms=   10 NActive=   10 NUniq=   10 SFac= 1.00D+00 NAtFMM=   60 NAOKFM=F Big=F
 Integral buffers will be    131072 words long.
 Raffenetti 1 integral format.
 Two-electron integral symmetry is turned on.
 One-electron integrals computed using PRISM.
 NBasis=    86 RedAO= T EigKep=  1.50D-02  NBF=    86
 NBsUse=    86 1.00D-06 EigRej= -1.00D+00 NBFU=    86
 Initial guess from the checkpoint file:  "ch3ooch3_rigid_scan.chk"
 B after Tr=     0.000000    0.000000    0.000000
         Rot=    0.999999   -0.000003    0.000000   -0.001138 Ang=  -0.13 deg.
 ExpMin= 1.22D-01 ExpMax= 1.17D+04 ExpMxC= 4.01D+02 IAcc=1 IRadAn=         1 AccDes= 0.00D+00
 Harris functional with IExCor=  205 and IRadAn=       1 diagonalized for initial guess.
 HarFok:  IExCor=  205 AccDes= 0.00D+00 IRadAn=         1 IDoV= 1 UseB2=F ITyADJ=14
 ICtDFT=  3500011 ScaDFX=  1.000000  1.000000  1.000000  1.000000
 FoFCou: FMM=F IPFlag=           0 FMFlag=      100000 FMFlg1=           0
         NFxFlg=           0 DoJE=T BraDBF=F KetDBF=T FulRan=T
         wScrn=  0.000000 ICntrl=     500 IOpCl=  0 I1Cent=   200000004 NGrid=           0
         NMat0=    1 NMatS0=      1 NMatT0=    0 NMatD0=    1 NMtDS0=    0 NMtDT0=    0
 Petite list used in FoFCou.
 Keep R1 ints in memory in canonical form, NReq=7943298.
 Requested convergence on RMS density matrix=1.00D-08 within 128 cycles.
 Requested convergence on MAX density matrix=1.00D-06.
 Requested convergence on             energy=1.00D-06.
 No special actions if energy rises.
 SCF Done:  E(RHF) =  -228.846945878     A.U. after   10 cycles
            NFock= 10  Conv=0.40D-08     -V/T= 2.0001
 Variable Step   Value    
 -------- ---- -----------
    21       8   -2.442273
 ---------------------------------------------------------------------------------------------------
                            Z-MATRIX (ANGSTROMS AND DEGREES)
   CD    Cent   Atom    N1       Length/X        N2       Alpha/Y        N3        Beta/Z          J
 ---------------------------------------------------------------------------------------------------
      1      1  O 
      2      2  O        1   1.394786(     1)
      3      3  C        2   1.395751(     2)      1  106.223(    10)
      4      4  H        3   1.088515(     3)      2  105.631(    11)      1  179.989(    18)      0
      5      5  H        3   1.091238(     4)      2  110.878(    12)      1  -61.029(    19)      0
      6      6  H        3   1.091231(     5)      2  110.885(    13)      1   61.015(    20)      0
      7      7  C        1   1.395751(     6)      2  106.222(    14)      3 -139.932(    21)      0
      8      8  H        7   1.091249(     7)      1  110.889(    15)      2   61.023(    22)      0
      9      9  H        7   1.088507(     8)      1  105.623(    16)      2  179.991(    23)      0
     10     10  H        7   1.091227(     9)      1  110.883(    17)      2  -61.027(    24)      0
 ---------------------------------------------------------------------------------------------------
                         Z-Matrix orientation:                         
 ---------------------------------------------------------------------
 Center     Atomic      Atomic             Coordinates (Angstroms)
 Number     Number       Type             X           Y           Z
 ---------------------------------------------------------------------
      1          8           0        0.000000    0.000000    0.000000
      2          8           0        0.000000    0.000000    1.394786
      3          6           0        1.340174    0.000000    1.784727
      4          1           0        1.328927    0.000205    2.873183
      5          1           0        1.851558   -0.892000    1.419182
      6          1           0        1.851720    0.891837    1.419030
      7          6           0       -1.025615    0.862671   -0.389915
      8          1           0       -0.843016    1.874524   -0.024353
      9          1           0       -1.016805    0.855466   -1.478362
     10          1           0       -1.991169    0.509311   -0.024378
 ---------------------------------------------------------------------
                    Distance matrix (angstroms):
                    1          2          3          4          5
     1  O    0.000000
     2  O    1.394786   0.000000
     3  C    2.231886   1.395751   0.000000
     4  H    3.165632   1.987889   1.088515   0.000000
     5  H    2.497601   2.055365   1.091238   1.784179   0.000000
     6  H    2.497576   2.055439   1.091231   1.784063   1.783837
     7  C    1.395751   2.231871   3.327195   4.115280   3.824896
     8  H    2.055507   2.497694   3.398960   4.077515   4.122885
     9  H    1.987780   3.165549   4.115206   5.016959   4.435866
    10  H    2.055419   2.497635   3.824932   4.435999   4.337521
                    6          7          8          9         10
     6  H    0.000000
     7  C    3.398852   0.000000
     8  H    3.211017   1.091249   0.000000
     9  H    4.077333   1.088507   1.784047   0.000000
    10  H    4.122809   1.091227   1.783834   1.784175   0.000000
 Stoichiometry    C2H6O2
 Framework group  C1[X(C2H6O2)]
 Deg. of freedom    24
 Full point group                 C1      NOp   1
 Largest Abelian subgroup         C1      NOp   1
 Largest concise Abelian subgroup C1      NOp   1
                         Standard orientation:                         
 ---------------------------------------------------------------------
 Center     Atomic      Atomic             Coordinates (Angstroms)
 Number     Number       Type             X           Y           Z
 ---------------------------------------------------------------------
      1          8           0       -0.488068    0.498157   -0.263433
      2          8           0        0.488067   -0.498130   -0.263472
      3          6           0        1.660317    0.104481    0.195671
      4          1           0        2.414471   -0.680440    0.191979
      5          1           0        1.965942    0.915708   -0.467130
      6          1           0        1.529433    0.488174    1.208802
      7          6           0       -1.660308   -0.104515    0.195656
      8          1           0       -1.529538   -0.488211    1.208820
      9          1           0       -2.414379    0.680475    0.191936
     10          1           0       -1.965974   -0.915720   -0.467135
 ---------------------------------------------------------------------
 Rotational constants (GHZ):     28.3752681      4.8308075      4.6221049
 Standard basis: CC-pVDZ (5D, 7F)
 There are    90 symmetry adapted cartesian basis functions of A   symmetry.
 There are    86 symmetry adapted basis functions of A   symmetry.
    86 basis functions,   174 primitive gaussians,    90 cartesian basis functions
    17 alpha electrons       17 beta electrons
       nuclear repulsion energy       136.5884590211 Hartrees.
 NAtoms=   10 NActive=   10 NUniq=   10 SFac= 1.00D+00 NAtFMM=   60 NAOKFM=F Big=F
 Integral buffers will be    131072 words long.
 Raffenetti 1 integral format.
 Two-electron integral symmetry is turned on.
 One-electron integrals computed using PRISM.
 NBasis=    86 RedAO= T EigKep=  1.52D-02  NBF=    86
 NBsUse=    86 1.00D-06 EigRej= -1.00D+00 NBFU=    86
 Initial guess from the checkpoint file:  "ch3ooch3_rigid_scan.chk"
 B after Tr=     0.000000    0.000000    0.000000
         Rot=    0.999999   -0.000005    0.000000   -0.001331 Ang=  -0.15 deg.
 ExpMin= 1.22D-01 ExpMax= 1.17D+04 ExpMxC= 4.01D+02 IAcc=1 IRadAn=         1 AccDes= 0.00D+00
 Harris functional with IExCor=  205 and IRadAn=       1 diagonalized for initial guess.
 HarFok:  IExCor=  205 AccDes= 0.00D+00 IRadAn=         1 IDoV= 1 UseB2=F ITyADJ=14
 ICtDFT=  3500011 ScaDFX=  1.000000  1.000000  1.000000  1.000000
 FoFCou: FMM=F IPFlag=           0 FMFlag=      100000 FMFlg1=           0
         NFxFlg=           0 DoJE=T BraDBF=F KetDBF=T FulRan=T
         wScrn=  0.000000 ICntrl=     500 IOpCl=  0 I1Cent=   200000004 NGrid=           0
         NMat0=    1 NMatS0=      1 NMatT0=    0 NMatD0=    1 NMtDS0=    0 NMtDT0=    0
 Petite list used in FoFCou.
 Keep R1 ints in memory in canonical form, NReq=7943354.
 Requested convergence on RMS density matrix=1.00D-08 within 128 cycles.
 Requested convergence on MAX density matrix=1.00D-06.
 Requested convergence on             energy=1.00D-06.
 No special actions if energy rises.
 SCF Done:  E(RHF) =  -228.846917860     A.U. after   11 cycles
            NFock= 11  Conv=0.60D-08     -V/T= 2.0001
 Variable Step   Value    
 -------- ---- -----------
    21       9   -2.355007
 ---------------------------------------------------------------------------------------------------
                            Z-MATRIX (ANGSTROMS AND DEGREES)
   CD    Cent   Atom    N1       Length/X        N2       Alpha/Y        N3        Beta/Z          J
 ---------------------------------------------------------------------------------------------------
      1      1  O 
      2      2  O        1   1.394786(     1)
      3      3  C        2   1.395751(     2)      1  106.223(    10)
      4      4  H        3   1.088515(     3)      2  105.631(    11)      1  179.989(    18)      0
      5      5  H        3   1.091238(     4)      2  110.878(    12)      1  -61.029(    19)      0
      6      6  H        3   1.091231(     5)      2  110.885(    13)      1   61.015(    20)      0
      7      7  C        1   1.395751(     6)      2  106.222(    14)      3 -134.932(    21)      0
      8      8  H        7   1.091249(     7)      1  110.889(    15)      2   61.023(    22)      0
      9      9  H        7   1.088507(     8)      1  105.623(    16)      2  179.991(    23)      0
     10     10  H        7   1.091227(     9)      1  110.883(    17)      2  -61.027(    24)      0
 ---------------------------------------------------------------------------------------------------
                         Z-Matrix orientation:                         
 ---------------------------------------------------------------------
 Center     Atomic      Atomic             Coordinates (Angstroms)
 Number     Number       Type             X           Y           Z
 ---------------------------------------------------------------------
      1          8           0        0.000000    0.000000    0.000000
      2          8           0        0.000000    0.000000    1.394786
      3          6           0        1.340174    0.000000    1.784727
      4          1           0        1.328927    0.000205    2.873183
      5          1           0        1.851558   -0.892000    1.419182
      6          1           0        1.851720    0.891837    1.419030
      7          6           0       -0.946526    0.948777   -0.389915
      8          1           0       -0.676432    1.940865   -0.024353
      9          1           0       -0.938377    0.940831   -1.478362
     10          1           0       -1.939203    0.680914   -0.024378
 ---------------------------------------------------------------------
                    Distance matrix (angstroms):
                    1          2          3          4          5
     1  O    0.000000
     2  O    1.394786   0.000000
     3  C    2.231886   1.395751   0.000000
     4  H    3.165632   1.987889   1.088515   0.000000
     5  H    2.497601   2.055365   1.091238   1.784179   0.000000
     6  H    2.497576   2.055439   1.091231   1.784063   1.783837
     7  C    1.395751   2.231871   3.295184   4.089656   3.806647
     8  H    2.055507   2.497694   3.332631   4.022853   4.061977
     9  H    1.987780   3.165549   4.089586   4.996138   4.420268
    10  H    2.055419   2.497635   3.806680   4.420395   4.350608
                    6          7          8          9         10
     6  H    0.000000
     7  C    3.332522   0.000000
     8  H    3.094410   1.091249   0.000000
     9  H    4.022677   1.088507   1.784047   0.000000
    10  H    4.061898   1.091227   1.783834   1.784175   0.000000
 Stoichiometry    C2H6O2
 Framework group  C1[X(C2H6O2)]
 Deg. of freedom    24
 Full point group                 C1      NOp   1
 Largest Abelian subgroup         C1      NOp   1
 Largest concise Abelian subgroup C1      NOp   1
                         Standard orientation:                         
 ---------------------------------------------------------------------
 Center     Atomic      Atomic             Coordinates (Angstroms)
 Number     Number       Type             X           Y           Z
 ---------------------------------------------------------------------
      1          8           0       -0.492909    0.493374   -0.294687
      2          8           0        0.492908   -0.493334   -0.294744
      3          6           0        1.644202    0.105682    0.218893
      4          1           0        2.406105   -0.671718    0.214727
      5          1           0        1.961816    0.939770   -0.408976
      6          1           0        1.478198    0.456708    1.238701
      7          6           0       -1.644194   -0.105726    0.218874
      8          1           0       -1.478302   -0.456792    1.238706
      9          1           0       -2.406016    0.671741    0.214703
     10          1           0       -1.961845   -0.939770   -0.409014
 ---------------------------------------------------------------------
 Rotational constants (GHZ):     27.3039844      4.8638791      4.6946762
 Standard basis: CC-pVDZ (5D, 7F)
 There are    90 symmetry adapted cartesian basis functions of A   symmetry.
 There are    86 symmetry adapted basis functions of A   symmetry.
    86 basis functions,   174 primitive gaussians,    90 cartesian basis functions
    17 alpha electrons       17 beta electrons
       nuclear repulsion energy       136.7133936659 Hartrees.
 NAtoms=   10 NActive=   10 NUniq=   10 SFac= 1.00D+00 NAtFMM=   60 NAOKFM=F Big=F
 Integral buffers will be    131072 words long.
 Raffenetti 1 integral format.
 Two-electron integral symmetry is turned on.
 One-electron integrals computed using PRISM.
 NBasis=    86 RedAO= T EigKep=  1.53D-02  NBF=    86
 NBsUse=    86 1.00D-06 EigRej= -1.00D+00 NBFU=    86
 Initial guess from the checkpoint file:  "ch3ooch3_rigid_scan.chk"
 B after Tr=     0.000000    0.000000    0.000000
         Rot=    0.999999   -0.000009    0.000000   -0.001531 Ang=  -0.18 deg.
 ExpMin= 1.22D-01 ExpMax= 1.17D+04 ExpMxC= 4.01D+02 IAcc=1 IRadAn=         1 AccDes= 0.00D+00
 Harris functional with IExCor=  205 and IRadAn=       1 diagonalized for initial guess.
 HarFok:  IExCor=  205 AccDes= 0.00D+00 IRadAn=         1 IDoV= 1 UseB2=F ITyADJ=14
 ICtDFT=  3500011 ScaDFX=  1.000000  1.000000  1.000000  1.000000
 FoFCou: FMM=F IPFlag=           0 FMFlag=      100000 FMFlg1=           0
[...]
 Harris functional with IExCor=  205 and IRadAn=       1 diagonalized for initial guess.
 HarFok:  IExCor=  205 AccDes= 0.00D+00 IRadAn=         1 IDoV= 1 UseB2=F ITyADJ=14
 ICtDFT=  3500011 ScaDFX=  1.000000  1.000000  1.000000  1.000000
 FoFCou: FMM=F IPFlag=           0 FMFlag=      100000 FMFlg1=           0
         NFxFlg=           0 DoJE=T BraDBF=F KetDBF=T FulRan=T
         wScrn=  0.000000 ICntrl=     500 IOpCl=  0 I1Cent=   200000004 NGrid=           0
         NMat0=    1 NMatS0=      1 NMatT0=    0 NMatD0=    1 NMtDS0=    0 NMtDT0=    0
 Petite list used in FoFCou.
 Keep R1 ints in memory in canonical form, NReq=7942962.
 Requested convergence on RMS density matrix=1.00D-08 within 128 cycles.
 Requested convergence on MAX density matrix=1.00D-06.
 Requested convergence on             energy=1.00D-06.
 No special actions if energy rises.
 SCF Done:  E(RHF) =  -228.847020485     A.U. after   11 cycles
            NFock= 11  Conv=0.73D-08     -V/T= 2.0001
 Variable Step   Value    
 -------- ---- -----------
    21      71    3.055514
 ---------------------------------------------------------------------------------------------------
                            Z-MATRIX (ANGSTROMS AND DEGREES)
   CD    Cent   Atom    N1       Length/X        N2       Alpha/Y        N3        Beta/Z          J
 ---------------------------------------------------------------------------------------------------
      1      1  O 
      2      2  O        1   1.394786(     1)
      3      3  C        2   1.395751(     2)      1  106.223(    10)
      4      4  H        3   1.088515(     3)      2  105.631(    11)      1  179.989(    18)      0
      5      5  H        3   1.091238(     4)      2  110.878(    12)      1  -61.029(    19)      0
      6      6  H        3   1.091231(     5)      2  110.885(    13)      1   61.015(    20)      0
      7      7  C        1   1.395751(     6)      2  106.222(    14)      3  175.068(    21)      0
      8      8  H        7   1.091249(     7)      1  110.889(    15)      2   61.023(    22)      0
      9      9  H        7   1.088507(     8)      1  105.623(    16)      2  179.991(    23)      0
     10     10  H        7   1.091227(     9)      1  110.883(    17)      2  -61.027(    24)      0
 ---------------------------------------------------------------------------------------------------
                         Z-Matrix orientation:                         
 ---------------------------------------------------------------------
 Center     Atomic      Atomic             Coordinates (Angstroms)
 Number     Number       Type             X           Y           Z
 ---------------------------------------------------------------------
      1          8           0        0.000000    0.000000    0.000000
      2          8           0        0.000000    0.000000    1.394786
      3          6           0        1.340174    0.000000    1.784727
      4          1           0        1.328927    0.000205    2.873183
      5          1           0        1.851558   -0.892000    1.419182
      6          1           0        1.851720    0.891837    1.419030
      7          6           0       -1.335220   -0.115219   -0.389915
      8          1           0       -1.921591    0.729387   -0.024353
      9          1           0       -1.323896   -0.114084   -1.478362
     10          1           0       -1.768106   -1.047832   -0.024378
 ---------------------------------------------------------------------
                    Distance matrix (angstroms):
                    1          2          3          4          5
     1  O    0.000000
     2  O    1.394786   0.000000
     3  C    2.231886   1.395751   0.000000
     4  H    3.165632   1.987889   1.088515   0.000000
     5  H    2.497601   2.055365   1.091238   1.784179   0.000000
     6  H    2.497576   2.055439   1.091231   1.784063   1.783837
     7  C    1.395751   2.231871   3.449649   4.214120   3.745901
     8  H    2.055507   2.497694   3.800512   4.415120   4.353084
     9  H    1.987780   3.165549   4.214028   5.097693   4.368572
    10  H    2.055419   2.497635   3.745960   4.368736   3.900015
                    6          7          8          9         10
     6  H    0.000000
     7  C    3.800399   0.000000
     8  H    4.043220   1.091249   0.000000
     9  H    4.414895   1.088507   1.784047   0.000000
    10  H    4.353032   1.091227   1.783834   1.784175   0.000000
 Stoichiometry    C2H6O2
 Framework group  C1[X(C2H6O2)]
 Deg. of freedom    24
 Full point group                 C1      NOp   1
 Largest Abelian subgroup         C1      NOp   1
 Largest concise Abelian subgroup C1      NOp   1
                         Standard orientation:                         
 ---------------------------------------------------------------------
 Center     Atomic      Atomic             Coordinates (Angstroms)
 Number     Number       Type             X           Y           Z
 ---------------------------------------------------------------------
      1          8           0       -0.470212    0.515036    0.033082
      2          8           0        0.470210   -0.515029    0.033085
      3          6           0        1.721942    0.099759   -0.024575
      4          1           0        2.447531   -0.711650   -0.023884
      5          1           0        1.824448    0.688316   -0.937753
      6          1           0        1.881143    0.740289    0.844425
      7          6           0       -1.721932   -0.099776   -0.024583
      8          1           0       -1.881260   -0.740234    0.844470
      9          1           0       -2.447416    0.711715   -0.023939
     10          1           0       -1.824499   -0.688385   -0.937707
 ---------------------------------------------------------------------
 Rotational constants (GHZ):     33.6255058      4.7035750      4.3583612
 Standard basis: CC-pVDZ (5D, 7F)
 There are    90 symmetry adapted cartesian basis functions of A   symmetry.
 There are    86 symmetry adapted basis functions of A   symmetry.
    86 basis functions,   174 primitive gaussians,    90 cartesian basis functions
    17 alpha electrons       17 beta electrons
       nuclear repulsion energy       136.1349760076 Hartrees.
 NAtoms=   10 NActive=   10 NUniq=   10 SFac= 1.00D+00 NAtFMM=   60 NAOKFM=F Big=F
 Integral buffers will be    131072 words long.
 Raffenetti 1 integral format.
 Two-electron integral symmetry is turned on.
 One-electron integrals computed using PRISM.
 NBasis=    86 RedAO= T EigKep=  1.43D-02  NBF=    86
 NBsUse=    86 1.00D-06 EigRej= -1.00D+00 NBFU=    86
 Initial guess from the checkpoint file:  "ch3ooch3_rigid_scan.chk"
 B after Tr=     0.000000    0.000000    0.000000
         Rot=    1.000000   -0.000001    0.000000    0.000249 Ang=  -0.03 deg.
 ExpMin= 1.22D-01 ExpMax= 1.17D+04 ExpMxC= 4.01D+02 IAcc=1 IRadAn=         1 AccDes= 0.00D+00
 Harris functional with IExCor=  205 and IRadAn=       1 diagonalized for initial guess.
 HarFok:  IExCor=  205 AccDes= 0.00D+00 IRadAn=         1 IDoV= 1 UseB2=F ITyADJ=14
 ICtDFT=  3500011 ScaDFX=  1.000000  1.000000  1.000000  1.000000
 FoFCou: FMM=F IPFlag=           0 FMFlag=      100000 FMFlg1=           0
         NFxFlg=           0 DoJE=T BraDBF=F KetDBF=T FulRan=T
         wScrn=  0.000000 ICntrl=     500 IOpCl=  0 I1Cent=   200000004 NGrid=           0
         NMat0=    1 NMatS0=      1 NMatT0=    0 NMatD0=    1 NMtDS0=    0 NMtDT0=    0
 Petite list used in FoFCou.
 Keep R1 ints in memory in canonical form, NReq=7942962.
 Requested convergence on RMS density matrix=1.00D-08 within 128 cycles.
 Requested convergence on MAX density matrix=1.00D-06.
 Requested convergence on             energy=1.00D-06.
 No special actions if energy rises.
 SCF Done:  E(RHF) =  -228.847025582     A.U. after   11 cycles
            NFock= 11  Conv=0.71D-08     -V/T= 2.0001
 Variable Step   Value    
 -------- ---- -----------
    21      72    3.142781
 ---------------------------------------------------------------------------------------------------
                            Z-MATRIX (ANGSTROMS AND DEGREES)
   CD    Cent   Atom    N1       Length/X        N2       Alpha/Y        N3        Beta/Z          J
 ---------------------------------------------------------------------------------------------------
      1      1  O 
      2      2  O        1   1.394786(     1)
      3      3  C        2   1.395751(     2)      1  106.223(    10)
      4      4  H        3   1.088515(     3)      2  105.631(    11)      1  179.989(    18)      0
      5      5  H        3   1.091238(     4)      2  110.878(    12)      1  -61.029(    19)      0
      6      6  H        3   1.091231(     5)      2  110.885(    13)      1   61.015(    20)      0
      7      7  C        1   1.395751(     6)      2  106.222(    14)      3  180.068(    21)      0
      8      8  H        7   1.091249(     7)      1  110.889(    15)      2   61.023(    22)      0
      9      9  H        7   1.088507(     8)      1  105.623(    16)      2  179.991(    23)      0
     10     10  H        7   1.091227(     9)      1  110.883(    17)      2  -61.027(    24)      0
 ---------------------------------------------------------------------------------------------------
                         Z-Matrix orientation:                         
 ---------------------------------------------------------------------
 Center     Atomic      Atomic             Coordinates (Angstroms)
 Number     Number       Type             X           Y           Z
 ---------------------------------------------------------------------
      1          8           0        0.000000    0.000000    0.000000
      2          8           0        0.000000    0.000000    1.394786
      3          6           0        1.340174    0.000000    1.784727
      4          1           0        1.328927    0.000205    2.873183
      5          1           0        1.851558   -0.892000    1.419182
      6          1           0        1.851720    0.891837    1.419030
      7          6           0       -1.340181    0.001592   -0.389915
      8          1           0       -1.850709    0.894089   -0.024353
      9          1           0       -1.328801    0.001735   -1.478362
     10          1           0       -1.852703   -0.889744   -0.024378
 ---------------------------------------------------------------------
                    Distance matrix (angstroms):
                    1          2          3          4          5
     1  O    0.000000
     2  O    1.394786   0.000000
     3  C    2.231886   1.395751   0.000000
     4  H    3.165632   1.987889   1.088515   0.000000
     5  H    2.497601   2.055365   1.091238   1.784179   0.000000
     6  H    2.497576   2.055439   1.091231   1.784063   1.783837
     7  C    1.395751   2.231871   3.451576   4.215679   3.776048
     8  H    2.055507   2.497694   3.775434   4.393726   4.356683
     9  H    1.987780   3.165549   4.215588   5.098967   4.394225
    10  H    2.055419   2.497635   3.776105   4.394386   3.975602
                    6          7          8          9         10
     6  H    0.000000
     7  C    3.775322   0.000000
     8  H    3.973832   1.091249   0.000000
     9  H    4.393504   1.088507   1.784047   0.000000
    10  H    4.356628   1.091227   1.783834   1.784175   0.000000
 Stoichiometry    C2H6O2
 Framework group  C1[X(C2H6O2)]
 Deg. of freedom    24
 Full point group                 C1      NOp   1
 Largest Abelian subgroup         C1      NOp   1
 Largest concise Abelian subgroup C1      NOp   1
                         Standard orientation:                         
 ---------------------------------------------------------------------
 Center     Atomic      Atomic             Coordinates (Angstroms)
 Number     Number       Type             X           Y           Z
 ---------------------------------------------------------------------
      1          8           0       -0.469939    0.515285   -0.000461
      2          8           0        0.469938   -0.515278   -0.000461
      3          6           0        1.722911    0.099684    0.000339
      4          1           0        2.448057   -0.712121    0.000537
      5          1           0        1.854827    0.714727   -0.891356
      6          1           0        1.854058    0.714232    0.892481
      7          6           0       -1.722901   -0.099701    0.000331
      8          1           0       -1.854173   -0.714181    0.892523
      9          1           0       -2.447943    0.712186    0.000481
     10          1           0       -1.854876   -0.714790   -0.891311
 ---------------------------------------------------------------------
 Rotational constants (GHZ):     33.7266447      4.7015679      4.3543811
 Standard basis: CC-pVDZ (5D, 7F)
 There are    90 symmetry adapted cartesian basis functions of A   symmetry.
 There are    86 symmetry adapted basis functions of A   symmetry.
    86 basis functions,   174 primitive gaussians,    90 cartesian basis functions
    17 alpha electrons       17 beta electrons
       nuclear repulsion energy       136.1281331506 Hartrees.
 NAtoms=   10 NActive=   10 NUniq=   10 SFac= 1.00D+00 NAtFMM=   60 NAOKFM=F Big=F
 Integral buffers will be    131072 words long.
 Raffenetti 1 integral format.
 Two-electron integral symmetry is turned on.
 One-electron integrals computed using PRISM.
 NBasis=    86 RedAO= T EigKep=  1.42D-02  NBF=    86
 NBsUse=    86 1.00D-06 EigRej= -1.00D+00 NBFU=    86
 Initial guess from the checkpoint file:  "ch3ooch3_rigid_scan.chk"
 B after Tr=     0.000000    0.000000    0.000000
         Rot=    1.000000   -0.000001    0.000000    0.000081 Ang=  -0.01 deg.
 ExpMin= 1.22D-01 ExpMax= 1.17D+04 ExpMxC= 4.01D+02 IAcc=1 IRadAn=         1 AccDes= 0.00D+00
 Harris functional with IExCor=  205 and IRadAn=       1 diagonalized for initial guess.
 HarFok:  IExCor=  205 AccDes= 0.00D+00 IRadAn=         1 IDoV= 1 UseB2=F ITyADJ=14
 ICtDFT=  3500011 ScaDFX=  1.000000  1.000000  1.000000  1.000000
 FoFCou: FMM=F IPFlag=           0 FMFlag=      100000 FMFlg1=           0
         NFxFlg=           0 DoJE=T BraDBF=F KetDBF=T FulRan=T
         wScrn=  0.000000 ICntrl=     500 IOpCl=  0 I1Cent=   200000004 NGrid=           0
         NMat0=    1 NMatS0=      1 NMatT0=    0 NMatD0=    1 NMtDS0=    0 NMtDT0=    0
 Petite list used in FoFCou.
 Keep R1 ints in memory in canonical form, NReq=7942934.
 Requested convergence on RMS density matrix=1.00D-08 within 128 cycles.
 Requested convergence on MAX density matrix=1.00D-06.
 Requested convergence on             energy=1.00D-06.
 No special actions if energy rises.
 SCF Done:  E(RHF) =  -228.847027236     A.U. after   11 cycles
            NFock= 11  Conv=0.68D-08     -V/T= 2.0001
 Scan completed.

 Summary of the potential surface scan:
   N      D4          SCF    
 ----  ---------  -----------
    1  -179.9319   -228.84703
    2  -174.9319   -228.84703
    3  -169.9319   -228.84702
    4  -164.9319   -228.84701
    5  -159.9319   -228.84700
    6  -154.9319   -228.84699
    7  -149.9319   -228.84697
    8  -144.9319   -228.84695
    9  -139.9319   -228.84692
   10  -134.9319   -228.84688
   11  -129.9319   -228.84683
   12  -124.9319   -228.84674
   13  -119.9319   -228.84662
   14  -114.9319   -228.84642
   15  -109.9319   -228.84611
   16  -104.9319   -228.84564
   17   -99.9319   -228.84494
   18   -94.9319   -228.84391
   19   -89.9319   -228.84246
   20   -84.9319   -228.84044
   21   -79.9319   -228.83776
   22   -74.9319   -228.83433
   23   -69.9319   -228.83015
   24   -64.9319   -228.82533
   25   -59.9319   -228.82010
   26   -54.9319   -228.81475
   27   -49.9319   -228.80958
   28   -44.9319   -228.80474
   29   -39.9319   -228.80019
   30   -34.9319   -228.79567
   31   -29.9319   -228.79083
   32   -24.9319   -228.78534
   33   -19.9319   -228.77918
   34   -14.9319   -228.77275
   35    -9.9319   -228.76692
   36    -4.9319   -228.76279
   37     0.0681   -228.76132
   38     5.0681   -228.76287
   39    10.0681   -228.76706
   40    15.0681   -228.77292
   41    20.0681   -228.77935
   42    25.0681   -228.78550
   43    30.0681   -228.79097
   44    35.0681   -228.79581
   45    40.0681   -228.80032
   46    45.0681   -228.80487
   47    50.0681   -228.80972
   48    55.0681   -228.81490
   49    60.0681   -228.82025
   50    65.0681   -228.82547
   51    70.0681   -228.83027
   52    75.0681   -228.83443
   53    80.0681   -228.83784
   54    85.0681   -228.84050
   55    90.0681   -228.84250
   56    95.0681   -228.84395
   57   100.0681   -228.84496
   58   105.0681   -228.84565
   59   110.0681   -228.84612
   60   115.0681   -228.84642
   61   120.0681   -228.84662
   62   125.0681   -228.84675
   63   130.0681   -228.84683
   64   135.0681   -228.84688
   65   140.0681   -228.84692
   66   145.0681   -228.84695
   67   150.0681   -228.84697
   68   155.0681   -228.84699
   69   160.0681   -228.84700
   70   165.0681   -228.84701
   71   170.0681   -228.84702
   72   175.0681   -228.84703
   73   180.0681   -228.84703
 ----  ---------  -----------
  
 1\1\GINC-C0700A-S1\Scan\RHF\CC-pVDZ\C2H6O2\LE.CHEN\07-Oct-2021\1\\# sc
 an rhf/cc-pvdz geom=connectivity\\Title Card Required\\0,1\O\O,1,B1\C,
 2,B2,1,A1\H,3,B3,2,A2,1,D1,0\H,3,B4,2,A3,1,D2,0\H,3,B5,2,A4,1,D3,0\C,1
 ,B6,2,A5,3,D4,0\H,7,B7,1,A6,2,D5,0\H,7,B8,1,A7,2,D6,0\H,7,B9,1,A8,2,D7
 ,0\\B1=1.39478632\B2=1.39575078\B3=1.08851464\B4=1.09123825\B5=1.09123
 147\B6=1.39575148\B7=1.09124909\B8=1.08850651\B9=1.09122688\A1=106.223
 0108\A2=105.63096214\A3=110.87809894\A4=110.88461684\A5=106.22192748\A
 6=110.88912534\A7=105.62291934\A8=110.88320651\D1=179.98881072\D2=-61.
 0287969\D3=61.01495001\D4=-179.93193824,s,72,5.\D5=61.02253684\D6=179.
 99143398\D7=-61.02689631\\Version=AS64L-G09RevD.01\HF=-228.8470272,-22
 8.8470254,-228.8470201,-228.8470116,-228.847,-228.8469855,-228.8469677
 ,-228.8469459,-228.8469179,-228.8468799,-228.8468252,-228.8467429,-228
 .8466157,-228.8464173,-228.8461097,-228.8456403,-228.8449387,-228.8439
 145,-228.8424569,-228.8404435,-228.837759,-228.8343269,-228.8301471,-2
 28.8253285,-228.820096,-228.8147499,-228.8095766,-228.8047368,-228.800
 1867,-228.7956733,-228.7908275,-228.7853404,-228.7791789,-228.7727509,
 -228.7669196,-228.7627938,-228.7613217,-228.762872,-228.7670577,-228.7
 729204,-228.7793532,-228.7855031,-228.790974,-228.7958085,-228.8003193
 ,-228.8048744,-228.809722,-228.8149006,-228.8202451,-228.8254678,-228.
 8302697,-228.834429,-228.8378398,-228.8405046,-228.8425015,-228.843945
 9,-228.8449603,-228.8456548,-228.8461192,-228.8464235,-228.8466198,-22
 8.8467457,-228.8468272,-228.8468814,-228.8469191,-228.846947,-228.8469
 687,-228.8469863,-228.8470007,-228.8470121,-228.8470205,-228.8470256,-
 228.8470272\RMSD=9.836e-09,6.843e-09,6.450e-09,6.373e-09,6.386e-09,6.2
 04e-09,4.332e-09,3.975e-09,5.956e-09,5.338e-09,4.870e-09,4.618e-09,4.4
 35e-09,4.254e-09,4.052e-09,3.827e-09,3.591e-09,3.353e-09,3.128e-09,2.9
 40e-09,2.823e-09,2.798e-09,2.843e-09,2.910e-09,2.951e-09,2.871e-09,2.8
 60e-09,2.747e-09,2.615e-09,2.513e-09,9.969e-09,2.718e-09,3.083e-09,3.4
 47e-09,3.728e-09,3.879e-09,3.700e-09,3.113e-09,2.758e-09,2.678e-09,2.5
 80e-09,2.484e-09,2.504e-09,7.328e-09,2.768e-09,2.936e-09,3.027e-09,3.0
 38e-09,7.105e-09,2.887e-09,2.879e-09,2.866e-09,2.914e-09,3.015e-09,3.1
 70e-09,3.363e-09,3.576e-09,3.775e-09,3.870e-09,3.531e-09,2.201e-09,2.1
 99e-09,3.471e-09,4.534e-09,5.661e-09,6.682e-09,3.825e-09,6.589e-09,7.3
 94e-09,7.549e-09,7.318e-09,7.065e-09,6.832e-09\PG=C01 [X(C2H6O2)]\\@


 The cat could very well be man's best friend
 but would never stoop to admitting it.
                               -- Doug Larson
 Job cpu time:       0 days  0 hours  1 minutes 19.4 seconds.
 File lengths (MBytes):  RWF=      6 Int=      0 D2E=      0 Chk=      2 Scr=      1
 Normal termination of Gaussian 09 at Thu Oct  7 19:37:24 2021.
