 Entering Gaussian System, Link 0=g09
 Initial command:
 /apps/gaussian/g09/amd-sse4a/l1.exe "/blue/chm6586/le.chen/hw3/q2/Gau-118157.inp" -scrdir="/blue/chm6586/le.chen/hw3/q2/"
 Entering Link 1 = /apps/gaussian/g09/amd-sse4a/l1.exe PID=    118158.
  
 Copyright (c) 1988,1990,1992,1993,1995,1998,2003,2009,2013,
            Gaussian, Inc.  All Rights Reserved.
  
 This is part of the Gaussian(R) 09 program.  It is based on
 the Gaussian(R) 03 system (copyright 2003, Gaussian, Inc.),
 the Gaussian(R) 98 system (copyright 1998, Gaussian, Inc.),
 the Gaussian(R) 94 system (copyright 1995, Gaussian, Inc.),
 the Gaussian 92(TM) system (copyright 1992, Gaussian, Inc.),
 the Gaussian 90(TM) system (copyright 1990, Gaussian, Inc.),
 the Gaussian 88(TM) system (copyright 1988, Gaussian, Inc.),
 the Gaussian 86(TM) system (copyright 1986, Carnegie Mellon
 University), and the Gaussian 82(TM) system (copyright 1983,
 Carnegie Mellon University). Gaussian is a federally registered
 trademark of Gaussian, Inc.
  
 This software contains proprietary and confidential information,
 including trade secrets, belonging to Gaussian, Inc.
  
 This software is provided under written license and may be
 used, copied, transmitted, or stored only in accord with that
 written license.
  
 The following legend is applicable only to US Government
 contracts under FAR:
  
                    RESTRICTED RIGHTS LEGEND
  
 Use, reproduction and disclosure by the US Government is
 subject to restrictions as set forth in subparagraphs (a)
 and (c) of the Commercial Computer Software - Restricted
 Rights clause in FAR 52.227-19.
  
 Gaussian, Inc.
 340 Quinnipiac St., Bldg. 40, Wallingford CT 06492
  
  
 ---------------------------------------------------------------
 Warning -- This program may not be used in any manner that
 competes with the business of Gaussian, Inc. or will provide
 assistance to any competitor of Gaussian, Inc.  The licensee
 of this program is prohibited from giving any competitor of
 Gaussian, Inc. access to this program.  By using this program,
 the user acknowledges that Gaussian, Inc. is engaged in the
 business of creating and licensing software in the field of
 computational chemistry and represents and warrants to the
 licensee that it is not a competitor of Gaussian, Inc. and that
 it will not use this program in any manner prohibited above.
 ---------------------------------------------------------------
  

 Cite this work as:
 Gaussian 09, Revision D.01,
 M. J. Frisch, G. W. Trucks, H. B. Schlegel, G. E. Scuseria, 
 M. A. Robb, J. R. Cheeseman, G. Scalmani, V. Barone, B. Mennucci, 
 G. A. Petersson, H. Nakatsuji, M. Caricato, X. Li, H. P. Hratchian, 
 A. F. Izmaylov, J. Bloino, G. Zheng, J. L. Sonnenberg, M. Hada, 
 M. Ehara, K. Toyota, R. Fukuda, J. Hasegawa, M. Ishida, T. Nakajima, 
 Y. Honda, O. Kitao, H. Nakai, T. Vreven, J. A. Montgomery, Jr., 
 J. E. Peralta, F. Ogliaro, M. Bearpark, J. J. Heyd, E. Brothers, 
 K. N. Kudin, V. N. Staroverov, T. Keith, R. Kobayashi, J. Normand, 
 K. Raghavachari, A. Rendell, J. C. Burant, S. S. Iyengar, J. Tomasi, 
 M. Cossi, N. Rega, J. M. Millam, M. Klene, J. E. Knox, J. B. Cross, 
 V. Bakken, C. Adamo, J. Jaramillo, R. Gomperts, R. E. Stratmann, 
 O. Yazyev, A. J. Austin, R. Cammi, C. Pomelli, J. W. Ochterski, 
 R. L. Martin, K. Morokuma, V. G. Zakrzewski, G. A. Voth, 
 P. Salvador, J. J. Dannenberg, S. Dapprich, A. D. Daniels, 
 O. Farkas, J. B. Foresman, J. V. Ortiz, J. Cioslowski, 
 and D. J. Fox, Gaussian, Inc., Wallingford CT, 2013.
 
 ******************************************
 Gaussian 09:  AS64L-G09RevD.01 24-Apr-2013
                 7-Oct-2021 
 ******************************************
 ------------------------------------------------------------
 # opt=(modredundant,maxcyc=500) hf/cc-pvdz geom=connectivity
 ------------------------------------------------------------
 1/6=500,18=120,19=15,38=1,57=2/1,3;
 2/9=110,12=2,17=6,18=5,40=1/2;
 3/5=16,11=9,16=1,25=1,30=1,71=1/1,2,3;
 4//1;
 5/5=2,38=5/2;
 6/7=2,8=2,9=2,10=2,28=1/1;
 7//1,2,3,16;
 1/6=500,18=20,19=15/3(2);
 2/9=110/2;
 99//99;
 2/9=110/2;
 3/5=16,11=9,16=1,25=1,30=1,71=1/1,2,3;
 4/5=5,16=3,69=1/1;
 5/5=2,38=5/2;
 7//1,2,3,16;
 1/6=500,18=20,19=15/3(-5);
 2/9=110/2;
 6/7=2,8=2,9=2,10=2,19=2,28=1/1;
 99/9=1/99;
 -----
 Title
 -----
 Symbolic Z-matrix:
 Charge =  0 Multiplicity = 1
 C                     1.72297   0.09969   0.00012 
 O                     0.47004  -0.51523  -0.00016 
 H                     2.44804  -0.71221   0.0001 
 H                     1.85458   0.71437   0.89217 
 H                     1.85483   0.71464  -0.8917 
 O                    -0.47004   0.51523  -0.00016 
 C                    -1.72297  -0.09969   0.00012 
 H                    -1.85483  -0.71465  -0.8917 
 H                    -2.44804   0.71221   0.00009 
 H                    -1.85458  -0.71437   0.89217 
 
 The following ModRedundant input section has been read:
 D       1       2       6       7 S  72 5.0000                                
 

 GradGradGradGradGradGradGradGradGradGradGradGradGradGradGradGradGradGrad
 Berny optimization.
 Initialization pass.
                           ----------------------------
                           !    Initial Parameters    !
                           ! (Angstroms and Degrees)  !
 --------------------------                            --------------------------
 ! Name  Definition              Value          Derivative Info.                !
 --------------------------------------------------------------------------------
 ! R1    R(1,2)                  1.3957         estimate D2E/DX2                !
 ! R2    R(1,3)                  1.0885         estimate D2E/DX2                !
 ! R3    R(1,4)                  1.0913         estimate D2E/DX2                !
 ! R4    R(1,5)                  1.0913         estimate D2E/DX2                !
 ! R5    R(2,6)                  1.3949         estimate D2E/DX2                !
 ! R6    R(6,7)                  1.3957         estimate D2E/DX2                !
 ! R7    R(7,8)                  1.0913         estimate D2E/DX2                !
 ! R8    R(7,9)                  1.0885         estimate D2E/DX2                !
 ! R9    R(7,10)                 1.0913         estimate D2E/DX2                !
 ! A1    A(2,1,3)              105.6252         estimate D2E/DX2                !
 ! A2    A(2,1,4)              110.8911         estimate D2E/DX2                !
 ! A3    A(2,1,5)              110.8911         estimate D2E/DX2                !
 ! A4    A(3,1,4)              109.8647         estimate D2E/DX2                !
 ! A5    A(3,1,5)              109.8645         estimate D2E/DX2                !
 ! A6    A(4,1,5)              109.6361         estimate D2E/DX2                !
 ! A7    A(1,2,6)              106.2325         estimate D2E/DX2                !
 ! A8    A(2,6,7)              106.2325         estimate D2E/DX2                !
 ! A9    A(6,7,8)              110.8911         estimate D2E/DX2                !
 ! A10   A(6,7,9)              105.6252         estimate D2E/DX2                !
 ! A11   A(6,7,10)             110.8911         estimate D2E/DX2                !
 ! A12   A(8,7,9)              109.8645         estimate D2E/DX2                !
 ! A13   A(8,7,10)             109.6361         estimate D2E/DX2                !
 ! A14   A(9,7,10)             109.8647         estimate D2E/DX2                !
 ! D1    D(3,1,2,6)           -179.9989         estimate D2E/DX2                !
 ! D2    D(4,1,2,6)             61.0268         estimate D2E/DX2                !
 ! D3    D(5,1,2,6)            -61.0249         estimate D2E/DX2                !
 ! D4    D(1,2,6,7)           -179.9764         Scan                            !
 ! D5    D(2,6,7,8)            -61.0247         estimate D2E/DX2                !
 ! D6    D(2,6,7,9)           -179.9988         estimate D2E/DX2                !
 ! D7    D(2,6,7,10)            61.027          estimate D2E/DX2                !
 --------------------------------------------------------------------------------
 Trust Radius=3.00D-01 FncErr=1.00D-07 GrdErr=1.00D-07
 Number of optimizations in scan=  73
 Number of steps in this run=    100 maximum allowed number of steps=    100.
 GradGradGradGradGradGradGradGradGradGradGradGradGradGradGradGradGradGrad

                          Input orientation:                          
 ---------------------------------------------------------------------
 Center     Atomic      Atomic             Coordinates (Angstroms)
 Number     Number       Type             X           Y           Z
 ---------------------------------------------------------------------
      1          6           0        1.722965    0.099691    0.000118
      2          8           0        0.470044   -0.515234   -0.000158
      3          1           0        2.448039   -0.712209    0.000095
      4          1           0        1.854575    0.714368    0.892167
      5          1           0        1.854833    0.714643   -0.891703
      6          8           0       -0.470044    0.515234   -0.000158
      7          6           0       -1.722965   -0.099691    0.000118
      8          1           0       -1.854832   -0.714645   -0.891702
      9          1           0       -2.448039    0.712209    0.000093
     10          1           0       -1.854576   -0.714366    0.892168
 ---------------------------------------------------------------------
                    Distance matrix (angstroms):
                    1          2          3          4          5
     1  C    0.000000
     2  O    1.395688   0.000000
     3  H    1.088538   1.987779   0.000000
     4  H    1.091284   2.055503   1.784128   0.000000
     5  H    1.091284   2.055502   1.784125   1.783870   0.000000
     6  O    2.232031   1.394858   3.165727   2.497950   2.497933
     7  C    3.451693   2.232031   4.215739   3.775876   3.776125
     8  H    3.776125   2.497932   4.394315   4.357059   3.975485
     9  H    4.215739   3.165727   5.099073   4.394120   4.394316
    10  H    3.775876   2.497951   4.394120   3.974806   4.357061
                    6          7          8          9         10
     6  O    0.000000
     7  C    1.395688   0.000000
     8  H    2.055503   1.091284   0.000000
     9  H    1.987779   1.088538   1.784126   0.000000
    10  H    2.055503   1.091284   1.783870   1.784128   0.000000
 Stoichiometry    C2H6O2
 Framework group  C1[X(C2H6O2)]
 Deg. of freedom    24
 Full point group                 C1      NOp   1
 Largest Abelian subgroup         C1      NOp   1
 Largest concise Abelian subgroup C1      NOp   1
                         Standard orientation:                         
 ---------------------------------------------------------------------
 Center     Atomic      Atomic             Coordinates (Angstroms)
 Number     Number       Type             X           Y           Z
 ---------------------------------------------------------------------
      1          6           0        1.722965    0.099691    0.000118
      2          8           0        0.470044   -0.515234   -0.000158
      3          1           0        2.448039   -0.712209    0.000095
      4          1           0        1.854575    0.714368    0.892167
      5          1           0        1.854833    0.714643   -0.891703
      6          8           0       -0.470044    0.515234   -0.000158
      7          6           0       -1.722965   -0.099691    0.000118
      8          1           0       -1.854832   -0.714645   -0.891702
      9          1           0       -2.448039    0.712209    0.000093
     10          1           0       -1.854576   -0.714366    0.892168
 ---------------------------------------------------------------------
 Rotational constants (GHZ):     33.7293022      4.7010492      4.3539890
 Standard basis: CC-pVDZ (5D, 7F)
 There are    90 symmetry adapted cartesian basis functions of A   symmetry.
 There are    86 symmetry adapted basis functions of A   symmetry.
    86 basis functions,   174 primitive gaussians,    90 cartesian basis functions
    17 alpha electrons       17 beta electrons
       nuclear repulsion energy       136.1246285658 Hartrees.
 NAtoms=   10 NActive=   10 NUniq=   10 SFac= 1.00D+00 NAtFMM=   60 NAOKFM=F Big=F
 Integral buffers will be    131072 words long.
 Raffenetti 1 integral format.
 Two-electron integral symmetry is turned on.
 One-electron integrals computed using PRISM.
 NBasis=    86 RedAO= T EigKep=  1.42D-02  NBF=    86
 NBsUse=    86 1.00D-06 EigRej= -1.00D+00 NBFU=    86
 ExpMin= 1.22D-01 ExpMax= 1.17D+04 ExpMxC= 4.01D+02 IAcc=1 IRadAn=         1 AccDes= 0.00D+00
 Harris functional with IExCor=  205 and IRadAn=       1 diagonalized for initial guess.
 HarFok:  IExCor=  205 AccDes= 0.00D+00 IRadAn=         1 IDoV= 1 UseB2=F ITyADJ=14
 ICtDFT=  3500011 ScaDFX=  1.000000  1.000000  1.000000  1.000000
 FoFCou: FMM=F IPFlag=           0 FMFlag=      100000 FMFlg1=           0
         NFxFlg=           0 DoJE=T BraDBF=F KetDBF=T FulRan=T
         wScrn=  0.000000 ICntrl=     500 IOpCl=  0 I1Cent=   200000004 NGrid=           0
         NMat0=    1 NMatS0=      1 NMatT0=    0 NMatD0=    1 NMtDS0=    0 NMtDT0=    0
 Petite list used in FoFCou.
 Keep R1 ints in memory in canonical form, NReq=7942934.
 Requested convergence on RMS density matrix=1.00D-08 within 128 cycles.
 Requested convergence on MAX density matrix=1.00D-06.
 Requested convergence on             energy=1.00D-06.
 No special actions if energy rises.
 SCF Done:  E(RHF) =  -228.847027275     A.U. after   11 cycles
            NFock= 11  Conv=0.19D-08     -V/T= 2.0001

 **********************************************************************

            Population analysis using the SCF density.

 **********************************************************************

 Orbital symmetries:
       Occupied  (A) (A) (A) (A) (A) (A) (A) (A) (A) (A) (A) (A)
                 (A) (A) (A) (A) (A)
       Virtual   (A) (A) (A) (A) (A) (A) (A) (A) (A) (A) (A) (A)
                 (A) (A) (A) (A) (A) (A) (A) (A) (A) (A) (A) (A)
                 (A) (A) (A) (A) (A) (A) (A) (A) (A) (A) (A) (A)
                 (A) (A) (A) (A) (A) (A) (A) (A) (A) (A) (A) (A)
                 (A) (A) (A) (A) (A) (A) (A) (A) (A) (A) (A) (A)
                 (A) (A) (A) (A) (A) (A) (A) (A) (A)
 The electronic state is 1-A.
 Alpha  occ. eigenvalues --  -20.60769 -20.60735 -11.27754 -11.27754  -1.50155
 Alpha  occ. eigenvalues --   -1.23945  -0.93191  -0.89910  -0.69208  -0.68202
 Alpha  occ. eigenvalues --   -0.67450  -0.60208  -0.55562  -0.54927  -0.49841
 Alpha  occ. eigenvalues --   -0.48837  -0.40403
 Alpha virt. eigenvalues --    0.20104   0.20832   0.25253   0.26105   0.26492
 Alpha virt. eigenvalues --    0.28447   0.29757   0.32018   0.40531   0.62541
 Alpha virt. eigenvalues --    0.63157   0.64384   0.65597   0.73316   0.79284
 Alpha virt. eigenvalues --    0.85658   0.85897   0.86191   0.86839   0.87534
 Alpha virt. eigenvalues --    0.91542   1.09359   1.10816   1.11668   1.16042
 Alpha virt. eigenvalues --    1.16492   1.17430   1.37920   1.40563   1.42019
 Alpha virt. eigenvalues --    1.42090   1.54433   1.66803   1.67026   1.68144
 Alpha virt. eigenvalues --    1.83759   1.87291   1.87514   1.88997   1.92647
 Alpha virt. eigenvalues --    1.93583   1.94411   1.96535   2.00976   2.05030
 Alpha virt. eigenvalues --    2.14135   2.20826   2.31657   2.34250   2.35291
 Alpha virt. eigenvalues --    2.37155   2.37570   2.49039   2.60424   2.70242
 Alpha virt. eigenvalues --    2.74204   2.75388   2.76286   2.77965   2.83975
 Alpha virt. eigenvalues --    2.97050   3.06522   3.31724   3.38868   3.44113
 Alpha virt. eigenvalues --    3.48381   3.59718   3.69871   4.28536
          Condensed to atoms (all electrons):
               1          2          3          4          5          6
     1  C    4.316422   0.291196   0.412061   0.414569   0.414571  -0.061507
     2  O    0.291196   8.066185  -0.016676  -0.033103  -0.033101   0.074861
     3  H    0.412061  -0.016676   0.608332  -0.023619  -0.023620   0.003604
     4  H    0.414569  -0.033103  -0.023619   0.649333  -0.038994   0.004416
     5  H    0.414571  -0.033101  -0.023620  -0.038994   0.649328   0.004413
     6  O   -0.061507   0.074861   0.003604   0.004416   0.004413   8.066185
     7  C    0.006984  -0.061507  -0.000374   0.000243   0.000243   0.291196
     8  H    0.000243   0.004413   0.000015   0.000308  -0.000392  -0.033101
     9  H   -0.000374   0.003604   0.000019   0.000015   0.000015  -0.016676
    10  H    0.000243   0.004416   0.000015  -0.000393   0.000308  -0.033103
               7          8          9         10
     1  C    0.006984   0.000243  -0.000374   0.000243
     2  O   -0.061507   0.004413   0.003604   0.004416
     3  H   -0.000374   0.000015   0.000019   0.000015
     4  H    0.000243   0.000308   0.000015  -0.000393
     5  H    0.000243  -0.000392   0.000015   0.000308
     6  O    0.291196  -0.033101  -0.016676  -0.033103
     7  C    4.316422   0.414571   0.412061   0.414569
     8  H    0.414571   0.649328  -0.023620  -0.038994
     9  H    0.412061  -0.023620   0.608332  -0.023619
    10  H    0.414569  -0.038994  -0.023619   0.649333
 Mulliken charges:
               1
     1  C    0.205593
     2  O   -0.300289
     3  H    0.040243
     4  H    0.027224
     5  H    0.027229
     6  O   -0.300289
     7  C    0.205593
     8  H    0.027229
     9  H    0.040243
    10  H    0.027224
 Sum of Mulliken charges =   0.00000
 Mulliken charges with hydrogens summed into heavy atoms:
               1
     1  C    0.300289
     2  O   -0.300289
     6  O   -0.300289
     7  C    0.300289
 Electronic spatial extent (au):  <R**2>=            321.0390
 Charge=              0.0000 electrons
 Dipole moment (field-independent basis, Debye):
    X=              0.0000    Y=              0.0000    Z=              0.0007  Tot=              0.0007
 Quadrupole moment (field-independent basis, Debye-Ang):
   XX=            -18.1028   YY=            -26.0222   ZZ=            -24.9967
   XY=              0.4879   XZ=              0.0000   YZ=              0.0000
 Traceless Quadrupole moment (field-independent basis, Debye-Ang):
   XX=              4.9378   YY=             -2.9817   ZZ=             -1.9561
   XY=              0.4879   XZ=              0.0000   YZ=              0.0000
 Octapole moment (field-independent basis, Debye-Ang**2):
  XXX=              0.0000  YYY=              0.0000  ZZZ=             -0.0003  XYY=              0.0000
  XXY=              0.0000  XXZ=             -0.0001  XZZ=              0.0000  YZZ=              0.0000
  YYZ=             -0.0004  XYZ=             -0.0004
 Hexadecapole moment (field-independent basis, Debye-Ang**3):
 XXXX=           -303.4895 YYYY=            -53.9324 ZZZZ=            -35.4766 XXXY=             -7.2293
 XXXZ=              0.0000 YYYX=             -3.2126 YYYZ=              0.0000 ZZZX=              0.0000
 ZZZY=              0.0000 XXYY=            -58.6909 XXZZ=            -60.3755 YYZZ=            -14.3795
 XXYZ=              0.0000 YYXZ=              0.0000 ZZXY=              1.6680
 N-N= 1.361246285658D+02 E-N=-8.117927455863D+02  KE= 2.288264373430D+02
 Calling FoFJK, ICntrl=      2127 FMM=F ISym2X=0 I1Cent= 0 IOpClX= 0 NMat=1 NMatS=1 NMatT=0.
 ***** Axes restored to original set *****
 -------------------------------------------------------------------
 Center     Atomic                   Forces (Hartrees/Bohr)
 Number     Number              X              Y              Z
 -------------------------------------------------------------------
      1        6          -0.000001540    0.000001145    0.000000383
      2        8           0.000000784   -0.000004253   -0.000000101
      3        1          -0.000000579   -0.000000192   -0.000000108
      4        1          -0.000000123    0.000000017    0.000000096
      5        1          -0.000000335   -0.000000007   -0.000000249
      6        8          -0.000000784    0.000004253   -0.000000151
      7        6           0.000001540   -0.000001145    0.000000234
      8        1           0.000000324    0.000000118   -0.000000144
      9        1           0.000000579    0.000000192   -0.000000160
     10        1           0.000000134   -0.000000128    0.000000201
 -------------------------------------------------------------------
 Cartesian Forces:  Max     0.000004253 RMS     0.000001241

 GradGradGradGradGradGradGradGradGradGradGradGradGradGradGradGradGradGrad
 Berny optimization.
 FormGI is forming the generalized inverse of G from B-inverse, IUseBI=4.
 Internal  Forces:  Max     0.000004665 RMS     0.000001352
 Search for a local minimum.
 Step number   1 out of a maximum of  100 on scan point     1 out of    73
 All quantities printed in internal units (Hartrees-Bohrs-Radians)
 Mixed Optimization -- En-DIIS/RFO-DIIS
 Second derivative matrix not updated -- first step.
 ITU=  0
     Eigenvalues ---    0.01749   0.01749   0.10286   0.10286   0.10827
     Eigenvalues ---    0.10827   0.16000   0.16000   0.16000   0.16000
     Eigenvalues ---    0.16000   0.16000   0.25000   0.25000   0.34665
     Eigenvalues ---    0.34665   0.34665   0.34665   0.34982   0.34982
     Eigenvalues ---    0.46343   0.46343   0.464831000.000001000.00000
     Eigenvalues --- 1000.000001000.000001000.000001000.000001000.00000
 RFO step:  Lambda= 0.00000000D+00 EMin= 1.74882515D-02
 Linear search not attempted -- first point.
 Iteration  1 RMS(Cart)=  0.00001458 RMS(Int)=  0.00000000
 Iteration  2 RMS(Cart)=  0.00000000 RMS(Int)=  0.00000000
 Iteration  1 RMS(Cart)=  0.00000000 RMS(Int)=  0.00000000
 Variable       Old X    -DE/DX   Delta X   Delta X   Delta X     New X
                                 (Linear)    (Quad)   (Total)
    R1        2.63747   0.00000   0.00000   0.00000   0.00000   2.63746
    R2        2.05704   0.00000   0.00000   0.00000   0.00000   2.05704
    R3        2.06223   0.00000   0.00000   0.00000   0.00000   2.06223
    R4        2.06223   0.00000   0.00000   0.00000   0.00000   2.06223
    R5        2.63590   0.00000   0.00000   0.00000   0.00000   2.63590
    R6        2.63747   0.00000   0.00000   0.00000   0.00000   2.63746
    R7        2.06223   0.00000   0.00000   0.00000   0.00000   2.06223
    R8        2.05704   0.00000   0.00000   0.00000   0.00000   2.05704
    R9        2.06223   0.00000   0.00000   0.00000   0.00000   2.06223
    A1        1.84351   0.00000   0.00000   0.00000   0.00000   1.84350
    A2        1.93541   0.00000   0.00000   0.00000   0.00000   1.93542
    A3        1.93541   0.00000   0.00000   0.00000   0.00000   1.93541
    A4        1.91750   0.00000   0.00000   0.00000   0.00000   1.91750
    A5        1.91750   0.00000   0.00000   0.00000   0.00000   1.91750
    A6        1.91351   0.00000   0.00000   0.00000   0.00000   1.91351
    A7        1.85411   0.00000   0.00000  -0.00002  -0.00002   1.85409
    A8        1.85411   0.00000   0.00000  -0.00002  -0.00002   1.85409
    A9        1.93541   0.00000   0.00000   0.00000   0.00000   1.93541
   A10        1.84351   0.00000   0.00000   0.00000   0.00000   1.84350
   A11        1.93541   0.00000   0.00000   0.00000   0.00000   1.93542
   A12        1.91750   0.00000   0.00000   0.00000   0.00000   1.91750
   A13        1.91351   0.00000   0.00000   0.00000   0.00000   1.91351
   A14        1.91750   0.00000   0.00000   0.00000   0.00000   1.91750
    D1       -3.14157   0.00000   0.00000   0.00000   0.00000  -3.14157
    D2        1.06512   0.00000   0.00000   0.00000   0.00000   1.06512
    D3       -1.06508   0.00000   0.00000   0.00000   0.00000  -1.06508
    D4       -3.14118   0.00000   0.00000   0.00000   0.00000  -3.14118
    D5       -1.06508   0.00000   0.00000   0.00000   0.00000  -1.06508
    D6       -3.14157   0.00000   0.00000   0.00000   0.00000  -3.14157
    D7        1.06512   0.00000   0.00000   0.00000   0.00000   1.06512
         Item               Value     Threshold  Converged?
 Maximum Force            0.000005     0.000450     YES
 RMS     Force            0.000001     0.000300     YES
 Maximum Displacement     0.000035     0.001800     YES
 RMS     Displacement     0.000015     0.001200     YES
 Predicted change in Energy=-1.052340D-10
 Optimization completed.
    -- Stationary point found.
                           ----------------------------
                           !   Optimized Parameters   !
                           ! (Angstroms and Degrees)  !
 --------------------------                            --------------------------
 ! Name  Definition              Value          Derivative Info.                !
 --------------------------------------------------------------------------------
 ! R1    R(1,2)                  1.3957         -DE/DX =    0.0                 !
 ! R2    R(1,3)                  1.0885         -DE/DX =    0.0                 !
 ! R3    R(1,4)                  1.0913         -DE/DX =    0.0                 !
 ! R4    R(1,5)                  1.0913         -DE/DX =    0.0                 !
 ! R5    R(2,6)                  1.3949         -DE/DX =    0.0                 !
 ! R6    R(6,7)                  1.3957         -DE/DX =    0.0                 !
 ! R7    R(7,8)                  1.0913         -DE/DX =    0.0                 !
 ! R8    R(7,9)                  1.0885         -DE/DX =    0.0                 !
 ! R9    R(7,10)                 1.0913         -DE/DX =    0.0                 !
 ! A1    A(2,1,3)              105.6252         -DE/DX =    0.0                 !
 ! A2    A(2,1,4)              110.8911         -DE/DX =    0.0                 !
 ! A3    A(2,1,5)              110.8911         -DE/DX =    0.0                 !
 ! A4    A(3,1,4)              109.8647         -DE/DX =    0.0                 !
 ! A5    A(3,1,5)              109.8645         -DE/DX =    0.0                 !
 ! A6    A(4,1,5)              109.6361         -DE/DX =    0.0                 !
 ! A7    A(1,2,6)              106.2325         -DE/DX =    0.0                 !
 ! A8    A(2,6,7)              106.2325         -DE/DX =    0.0                 !
 ! A9    A(6,7,8)              110.8911         -DE/DX =    0.0                 !
 ! A10   A(6,7,9)              105.6252         -DE/DX =    0.0                 !
 ! A11   A(6,7,10)             110.8911         -DE/DX =    0.0                 !
 ! A12   A(8,7,9)              109.8645         -DE/DX =    0.0                 !
 ! A13   A(8,7,10)             109.6361         -DE/DX =    0.0                 !
 ! A14   A(9,7,10)             109.8647         -DE/DX =    0.0                 !
 ! D1    D(3,1,2,6)           -179.9989         -DE/DX =    0.0                 !
 ! D2    D(4,1,2,6)             61.0268         -DE/DX =    0.0                 !
 ! D3    D(5,1,2,6)            -61.0249         -DE/DX =    0.0                 !
 ! D4    D(1,2,6,7)           -179.9764         -DE/DX =    0.0                 !
 ! D5    D(2,6,7,8)            -61.0247         -DE/DX =    0.0                 !
 ! D6    D(2,6,7,9)           -179.9988         -DE/DX =    0.0                 !
 ! D7    D(2,6,7,10)            61.027          -DE/DX =    0.0                 !
 --------------------------------------------------------------------------------
 Iteration  1 RMS(Cart)=  0.04187682 RMS(Int)=  0.00089993
 Iteration  2 RMS(Cart)=  0.00141554 RMS(Int)=  0.00000028
 Iteration  3 RMS(Cart)=  0.00000031 RMS(Int)=  0.00000000
 Iteration  1 RMS(Cart)=  0.00000000 RMS(Int)=  0.00000000
 GradGradGradGradGradGradGradGradGradGradGradGradGradGradGradGradGradGrad

                          Input orientation:                          
 ---------------------------------------------------------------------
 Center     Atomic      Atomic             Coordinates (Angstroms)
 Number     Number       Type             X           Y           Z
 ---------------------------------------------------------------------
      1          6           0        1.721965    0.099473    0.002982
      2          8           0        0.470232   -0.515063   -0.055746
      3          1           0        2.447354   -0.712145    0.002452
      4          1           0        1.824246    0.687634    0.916494
      5          1           0        1.881962    0.740376   -0.865663
      6          8           0       -0.470232    0.515063   -0.055746
      7          6           0       -1.721965   -0.099473    0.002982
      8          1           0       -1.881962   -0.740377   -0.865662
      9          1           0       -2.447355    0.712145    0.002450
     10          1           0       -1.824246   -0.687633    0.916495
 ---------------------------------------------------------------------
                    Distance matrix (angstroms):
                    1          2          3          4          5
     1  C    0.000000
     2  O    1.395685   0.000000
     3  H    1.088537   1.987773   0.000000
     4  H    1.091284   2.055501   1.784130   0.000000
     5  H    1.091284   2.055499   1.784127   1.783872   0.000000
     6  O    2.232015   1.394860   3.165713   2.497932   2.497909
     7  C    3.449671   2.232015   4.214094   3.745618   3.801076
     8  H    3.801076   2.497908   4.415586   4.353306   4.044719
     9  H    4.214094   3.165713   5.097723   4.368369   4.415586
    10  H    3.745618   2.497932   4.368369   3.899084   4.353307
                    6          7          8          9         10
     6  O    0.000000
     7  C    1.395685   0.000000
     8  H    2.055499   1.091284   0.000000
     9  H    1.987773   1.088537   1.784126   0.000000
    10  H    2.055501   1.091284   1.783872   1.784130   0.000000
 Stoichiometry    C2H6O2
 Framework group  C1[X(C2H6O2)]
 Deg. of freedom    24
 Full point group                 C1      NOp   1
 Largest Abelian subgroup         C1      NOp   1
 Largest concise Abelian subgroup C1      NOp   1
                         Standard orientation:                         
 ---------------------------------------------------------------------
 Center     Atomic      Atomic             Coordinates (Angstroms)
 Number     Number       Type             X           Y           Z
 ---------------------------------------------------------------------
      1          6           0        1.721948    0.099770    0.025029
      2          8           0        0.470321   -0.514982   -0.033699
      3          1           0        2.447478   -0.711722    0.024499
      4          1           0        1.824127    0.687950    0.938541
      5          1           0        1.881834    0.740701   -0.843616
      6          8           0       -0.470321    0.514982   -0.033700
      7          6           0       -1.721948   -0.099770    0.025029
      8          1           0       -1.881834   -0.740703   -0.843615
      9          1           0       -2.447478    0.711722    0.024496
     10          1           0       -1.824128   -0.687948    0.938542
 ---------------------------------------------------------------------
 Rotational constants (GHZ):     33.6238280      4.7031969      4.3581673
 Standard basis: CC-pVDZ (5D, 7F)
 There are    90 symmetry adapted cartesian basis functions of A   symmetry.
 There are    86 symmetry adapted basis functions of A   symmetry.
    86 basis functions,   174 primitive gaussians,    90 cartesian basis functions
    17 alpha electrons       17 beta electrons
       nuclear repulsion energy       136.1320891661 Hartrees.
 NAtoms=   10 NActive=   10 NUniq=   10 SFac= 1.00D+00 NAtFMM=   60 NAOKFM=F Big=F
 Integral buffers will be    131072 words long.
 Raffenetti 1 integral format.
 Two-electron integral symmetry is turned on.
 One-electron integrals computed using PRISM.
 NBasis=    86 RedAO= T EigKep=  1.43D-02  NBF=    86
 NBsUse=    86 1.00D-06 EigRej= -1.00D+00 NBFU=    86
 Initial guess from the checkpoint file:  "/blue/chm6586/le.chen/hw3/q2/Gau-118158.chk"
 B after Tr=     0.000000    0.000000    0.000000
         Rot=    1.000000    0.000000    0.000000   -0.000084 Ang=   0.01 deg.
 ExpMin= 1.22D-01 ExpMax= 1.17D+04 ExpMxC= 4.01D+02 IAcc=1 IRadAn=         1 AccDes= 0.00D+00
 Harris functional with IExCor=  205 and IRadAn=       1 diagonalized for initial guess.
 HarFok:  IExCor=  205 AccDes= 0.00D+00 IRadAn=         1 IDoV= 1 UseB2=F ITyADJ=14
 ICtDFT=  3500011 ScaDFX=  1.000000  1.000000  1.000000  1.000000
 FoFCou: FMM=F IPFlag=           0 FMFlag=      100000 FMFlg1=           0
         NFxFlg=           0 DoJE=T BraDBF=F KetDBF=T FulRan=T
         wScrn=  0.000000 ICntrl=     500 IOpCl=  0 I1Cent=   200000004 NGrid=           0
         NMat0=    1 NMatS0=      1 NMatT0=    0 NMatD0=    1 NMtDS0=    0 NMtDT0=    0
 Petite list used in FoFCou.
 Keep R1 ints in memory in canonical form, NReq=7942962.
 Requested convergence on RMS density matrix=1.00D-08 within 128 cycles.
 Requested convergence on MAX density matrix=1.00D-06.
 Requested convergence on             energy=1.00D-06.
 No special actions if energy rises.
 SCF Done:  E(RHF) =  -228.847025530     A.U. after   11 cycles
            NFock= 11  Conv=0.66D-08     -V/T= 2.0001
 Calling FoFJK, ICntrl=      2127 FMM=F ISym2X=0 I1Cent= 0 IOpClX= 0 NMat=1 NMatS=1 NMatT=0.
 ***** Axes restored to original set *****
 -------------------------------------------------------------------
 Center     Atomic                   Forces (Hartrees/Bohr)
 Number     Number              X              Y              Z
 -------------------------------------------------------------------
      1        6           0.000022730   -0.000015906    0.000086293
      2        8          -0.000009972    0.000063600    0.000005584
      3        1           0.000011876    0.000001317   -0.000088761
      4        1          -0.000000500    0.000014988   -0.000002675
      5        1           0.000008987   -0.000014789   -0.000000430
      6        8           0.000009971   -0.000063599    0.000005568
      7        6          -0.000022728    0.000015907    0.000086319
      8        1          -0.000008998    0.000014779   -0.000000447
      9        1          -0.000011876   -0.000001317   -0.000088757
     10        1           0.000000509   -0.000014979   -0.000002693
 -------------------------------------------------------------------
 Cartesian Forces:  Max     0.000088761 RMS     0.000037369

 GradGradGradGradGradGradGradGradGradGradGradGradGradGradGradGradGradGrad
 Berny optimization.
 FormGI is forming the generalized inverse of G from B-inverse, IUseBI=4.
 Internal  Forces:  Max     0.000089815 RMS     0.000039934
 Search for a local minimum.
 Step number   1 out of a maximum of  100 on scan point     2 out of    73
 All quantities printed in internal units (Hartrees-Bohrs-Radians)
 Mixed Optimization -- RFO/linear search
 Second derivative matrix not updated -- first step.
 ITU=  0
     Eigenvalues ---    0.01749   0.01749   0.10286   0.10286   0.10827
     Eigenvalues ---    0.10827   0.16000   0.16000   0.16000   0.16000
     Eigenvalues ---    0.16000   0.16000   0.25000   0.25000   0.34665
     Eigenvalues ---    0.34665   0.34665   0.34665   0.34982   0.34982
     Eigenvalues ---    0.46343   0.46343   0.464831000.000001000.00000
     Eigenvalues --- 1000.000001000.000001000.000001000.000001000.00000
 RFO step:  Lambda=-8.08402593D-07 EMin= 1.74882515D-02
 Linear search not attempted -- first point.
 Iteration  1 RMS(Cart)=  0.00205839 RMS(Int)=  0.00000245
 Iteration  2 RMS(Cart)=  0.00000248 RMS(Int)=  0.00000003
 Iteration  3 RMS(Cart)=  0.00000000 RMS(Int)=  0.00000003
 Iteration  1 RMS(Cart)=  0.00000000 RMS(Int)=  0.00000000
 Variable       Old X    -DE/DX   Delta X   Delta X   Delta X     New X
                                 (Linear)    (Quad)   (Total)
    R1        2.63746   0.00003   0.00000   0.00007   0.00007   2.63753
    R2        2.05704   0.00001   0.00000   0.00002   0.00002   2.05706
    R3        2.06223   0.00001   0.00000   0.00002   0.00002   2.06224
    R4        2.06223  -0.00001   0.00000  -0.00002  -0.00002   2.06221
    R5        2.63590  -0.00001   0.00000  -0.00003  -0.00003   2.63587
    R6        2.63746   0.00003   0.00000   0.00007   0.00007   2.63753
    R7        2.06223  -0.00001   0.00000  -0.00002  -0.00002   2.06221
    R8        2.05704   0.00001   0.00000   0.00002   0.00002   2.05706
    R9        2.06223   0.00001   0.00000   0.00002   0.00002   2.06224
    A1        1.84350   0.00001   0.00000   0.00004   0.00004   1.84354
    A2        1.93542   0.00003   0.00000   0.00024   0.00024   1.93565
    A3        1.93541  -0.00002   0.00000  -0.00019  -0.00019   1.93523
    A4        1.91750   0.00005   0.00000   0.00044   0.00044   1.91795
    A5        1.91750  -0.00006   0.00000  -0.00051  -0.00051   1.91699
    A6        1.91351   0.00000   0.00000  -0.00002  -0.00002   1.91349
    A7        1.85409   0.00008   0.00000   0.00033   0.00033   1.85442
    A8        1.85409   0.00008   0.00000   0.00033   0.00033   1.85442
    A9        1.93541  -0.00002   0.00000  -0.00019  -0.00019   1.93523
   A10        1.84350   0.00001   0.00000   0.00004   0.00004   1.84354
   A11        1.93542   0.00003   0.00000   0.00024   0.00024   1.93565
   A12        1.91750  -0.00006   0.00000  -0.00051  -0.00051   1.91699
   A13        1.91351   0.00000   0.00000  -0.00002  -0.00002   1.91349
   A14        1.91750   0.00005   0.00000   0.00044   0.00044   1.91795
    D1       -3.14157   0.00009   0.00000   0.00277   0.00277  -3.13880
    D2        1.06512   0.00002   0.00000   0.00209   0.00209   1.06721
    D3       -1.06508   0.00002   0.00000   0.00208   0.00208  -1.06300
    D4       -3.05391  -0.00004   0.00000   0.00000   0.00000  -3.05391
    D5       -1.06508   0.00002   0.00000   0.00208   0.00208  -1.06300
    D6       -3.14157   0.00009   0.00000   0.00277   0.00277  -3.13880
    D7        1.06512   0.00002   0.00000   0.00209   0.00209   1.06721
         Item               Value     Threshold  Converged?
 Maximum Force            0.000090     0.000450     YES
 RMS     Force            0.000040     0.000300     YES
 Maximum Displacement     0.005138     0.001800     NO 
 RMS     Displacement     0.002058     0.001200     NO 
 Predicted change in Energy=-4.042039D-07
 GradGradGradGradGradGradGradGradGradGradGradGradGradGradGradGradGradGrad

                          Input orientation:                          
 ---------------------------------------------------------------------
 Center     Atomic      Atomic             Coordinates (Angstroms)
 Number     Number       Type             X           Y           Z
 ---------------------------------------------------------------------
      1          6           0        1.722172    0.099474    0.003176
      2          8           0        0.470344   -0.514951   -0.055548
      3          1           0        2.447611   -0.712106   -0.000267
      4          1           0        1.825551    0.685988    0.917634
      5          1           0        1.881190    0.741948   -0.864475
      6          8           0       -0.470344    0.514951   -0.055549
      7          6           0       -1.722172   -0.099474    0.003175
      8          1           0       -1.881190   -0.741950   -0.864474
      9          1           0       -2.447611    0.712106   -0.000269
     10          1           0       -1.825552   -0.685986    0.917635
 ---------------------------------------------------------------------
                    Distance matrix (angstroms):
                    1          2          3          4          5
     1  C    0.000000
     2  O    1.395722   0.000000
     3  H    1.088548   1.987842   0.000000
     4  H    1.091293   2.055705   1.784423   0.000000
     5  H    1.091273   2.055394   1.783805   1.783855   0.000000
     6  O    2.232307   1.394844   3.165941   2.499494   2.497118
     7  C    3.450085   2.232307   4.214549   3.746935   3.800661
     8  H    3.800661   2.497118   4.414325   4.353716   4.044435
     9  H    4.214549   3.165941   5.098194   4.370715   4.414325
    10  H    3.746936   2.499495   4.370715   3.900367   4.353716
                    6          7          8          9         10
     6  O    0.000000
     7  C    1.395722   0.000000
     8  H    2.055394   1.091273   0.000000
     9  H    1.987842   1.088548   1.783805   0.000000
    10  H    2.055705   1.091293   1.783855   1.784423   0.000000
 Stoichiometry    C2H6O2
 Framework group  C1[X(C2H6O2)]
 Deg. of freedom    24
 Full point group                 C1      NOp   1
 Largest Abelian subgroup         C1      NOp   1
 Largest concise Abelian subgroup C1      NOp   1
                         Standard orientation:                         
 ---------------------------------------------------------------------
 Center     Atomic      Atomic             Coordinates (Angstroms)
 Number     Number       Type             X           Y           Z
 ---------------------------------------------------------------------
      1          6           0        1.722156    0.099754    0.025084
      2          8           0        0.470427   -0.514874   -0.033640
      3          1           0        2.447727   -0.711708    0.021641
      4          1           0        1.825440    0.686285    0.939542
      5          1           0        1.881070    0.742254   -0.842567
      6          8           0       -0.470427    0.514874   -0.033640
      7          6           0       -1.722156   -0.099754    0.025084
      8          1           0       -1.881069   -0.742255   -0.842566
      9          1           0       -2.447727    0.711708    0.021639
     10          1           0       -1.825440   -0.686283    0.939543
 ---------------------------------------------------------------------
 Rotational constants (GHZ):     33.6321649      4.7020324      4.3573003
 Standard basis: CC-pVDZ (5D, 7F)
 There are    90 symmetry adapted cartesian basis functions of A   symmetry.
 There are    86 symmetry adapted basis functions of A   symmetry.
    86 basis functions,   174 primitive gaussians,    90 cartesian basis functions
    17 alpha electrons       17 beta electrons
       nuclear repulsion energy       136.1254550791 Hartrees.
 NAtoms=   10 NActive=   10 NUniq=   10 SFac= 1.00D+00 NAtFMM=   60 NAOKFM=F Big=F
 Integral buffers will be    131072 words long.
 Raffenetti 1 integral format.
 Two-electron integral symmetry is turned on.
 One-electron integrals computed using PRISM.
 NBasis=    86 RedAO= T EigKep=  1.43D-02  NBF=    86
 NBsUse=    86 1.00D-06 EigRej= -1.00D+00 NBFU=    86
 Initial guess from the checkpoint file:  "/blue/chm6586/le.chen/hw3/q2/Gau-118158.chk"
 B after Tr=     0.000000    0.000000    0.000000
         Rot=    1.000000    0.000000    0.000000   -0.000004 Ang=   0.00 deg.
 Keep R1 ints in memory in canonical form, NReq=7942962.
 Requested convergence on RMS density matrix=1.00D-08 within 128 cycles.
 Requested convergence on MAX density matrix=1.00D-06.
 Requested convergence on             energy=1.00D-06.
 No special actions if energy rises.
 SCF Done:  E(RHF) =  -228.847026098     A.U. after    8 cycles
            NFock=  8  Conv=0.69D-08     -V/T= 2.0001
 Calling FoFJK, ICntrl=      2127 FMM=F ISym2X=0 I1Cent= 0 IOpClX= 0 NMat=1 NMatS=1 NMatT=0.
 ***** Axes restored to original set *****
 -------------------------------------------------------------------
 Center     Atomic                   Forces (Hartrees/Bohr)
 Number     Number              X              Y              Z
 -------------------------------------------------------------------
      1        6          -0.000021967    0.000020522   -0.000001199
      2        8          -0.000034854   -0.000019961    0.000020166
      3        1          -0.000010243   -0.000002996   -0.000022866
      4        1           0.000001807   -0.000007131    0.000003484
      5        1          -0.000000586    0.000009711    0.000000422
      6        8           0.000034854    0.000019960    0.000020150
      7        6           0.000021967   -0.000020522   -0.000001194
      8        1           0.000000586   -0.000009708    0.000000420
      9        1           0.000010243    0.000002996   -0.000022865
     10        1          -0.000001807    0.000007128    0.000003482
 -------------------------------------------------------------------
 Cartesian Forces:  Max     0.000034854 RMS     0.000015753

 GradGradGradGradGradGradGradGradGradGradGradGradGradGradGradGradGradGrad
 Berny optimization.
 Using GEDIIS/GDIIS optimizer.
 FormGI is forming the generalized inverse of G from B-inverse, IUseBI=4.
 Internal  Forces:  Max     0.000060194 RMS     0.000023027
 Search for a local minimum.
 Step number   2 out of a maximum of  100 on scan point     2 out of    73
 All quantities printed in internal units (Hartrees-Bohrs-Radians)
 Mixed Optimization -- En-DIIS/RFO-DIIS
 Update second derivatives using D2CorX and points    1    2
 DE= -5.68D-07 DEPred=-4.04D-07 R= 1.41D+00
 Trust test= 1.41D+00 RLast= 5.83D-03 DXMaxT set to 3.00D-01
 ITU=  0  0
 Use linear search instead of GDIIS.
     Eigenvalues ---    0.00763   0.01749   0.10258   0.10286   0.10826
     Eigenvalues ---    0.11055   0.15991   0.16000   0.16000   0.16000
     Eigenvalues ---    0.16000   0.16206   0.25000   0.31600   0.34664
     Eigenvalues ---    0.34665   0.34665   0.34777   0.34982   0.35159
     Eigenvalues ---    0.46325   0.46343   0.481951000.000001000.00000
     Eigenvalues --- 1000.000001000.000001000.000001000.000001000.00000
 RFO step:  Lambda=-3.56745701D-07 EMin= 7.63116931D-03
 Quartic linear search produced a step of  0.68413.
 Iteration  1 RMS(Cart)=  0.00299298 RMS(Int)=  0.00000504
 Iteration  2 RMS(Cart)=  0.00000516 RMS(Int)=  0.00000003
 Iteration  3 RMS(Cart)=  0.00000000 RMS(Int)=  0.00000003
 Iteration  1 RMS(Cart)=  0.00000000 RMS(Int)=  0.00000000
 Variable       Old X    -DE/DX   Delta X   Delta X   Delta X     New X
                                 (Linear)    (Quad)   (Total)
    R1        2.63753  -0.00002   0.00005  -0.00009  -0.00004   2.63749
    R2        2.05706   0.00000   0.00001  -0.00003  -0.00001   2.05704
    R3        2.06224   0.00000   0.00001  -0.00001   0.00000   2.06225
    R4        2.06221   0.00001  -0.00001   0.00003   0.00002   2.06222
    R5        2.63587  -0.00004  -0.00002  -0.00015  -0.00017   2.63570
    R6        2.63753  -0.00002   0.00005  -0.00009  -0.00004   2.63749
    R7        2.06221   0.00001  -0.00001   0.00003   0.00002   2.06222
    R8        2.05706   0.00000   0.00001  -0.00003  -0.00001   2.05704
    R9        2.06224   0.00000   0.00001  -0.00001   0.00000   2.06225
    A1        1.84354  -0.00002   0.00003  -0.00020  -0.00018   1.84337
    A2        1.93565   0.00000   0.00016   0.00000   0.00016   1.93582
    A3        1.93523   0.00000  -0.00013   0.00007  -0.00006   1.93517
    A4        1.91795   0.00001   0.00030   0.00004   0.00035   1.91829
    A5        1.91699   0.00000  -0.00035   0.00005  -0.00031   1.91668
    A6        1.91349   0.00000  -0.00002   0.00004   0.00002   1.91351
    A7        1.85442  -0.00006   0.00022  -0.00049  -0.00026   1.85416
    A8        1.85442  -0.00006   0.00022  -0.00049  -0.00026   1.85416
    A9        1.93523   0.00000  -0.00013   0.00007  -0.00006   1.93517
   A10        1.84354  -0.00002   0.00003  -0.00020  -0.00018   1.84337
   A11        1.93565   0.00000   0.00016   0.00000   0.00016   1.93582
   A12        1.91699   0.00000  -0.00035   0.00005  -0.00031   1.91668
   A13        1.91349   0.00000  -0.00002   0.00004   0.00002   1.91351
   A14        1.91795   0.00001   0.00030   0.00004   0.00035   1.91829
    D1       -3.13880   0.00003   0.00189   0.00184   0.00373  -3.13507
    D2        1.06721   0.00002   0.00143   0.00191   0.00333   1.07055
    D3       -1.06300   0.00002   0.00142   0.00181   0.00323  -1.05977
    D4       -3.05391  -0.00003   0.00000   0.00000   0.00000  -3.05391
    D5       -1.06300   0.00002   0.00142   0.00181   0.00323  -1.05977
    D6       -3.13880   0.00003   0.00189   0.00184   0.00373  -3.13507
    D7        1.06721   0.00002   0.00143   0.00191   0.00333   1.07055
         Item               Value     Threshold  Converged?
 Maximum Force            0.000060     0.000450     YES
 RMS     Force            0.000023     0.000300     YES
 Maximum Displacement     0.007093     0.001800     NO 
 RMS     Displacement     0.002993     0.001200     NO 
 Predicted change in Energy=-2.900369D-07
 GradGradGradGradGradGradGradGradGradGradGradGradGradGradGradGradGradGrad

                          Input orientation:                          
 ---------------------------------------------------------------------
 Center     Atomic      Atomic             Coordinates (Angstroms)
 Number     Number       Type             X           Y           Z
 ---------------------------------------------------------------------
      1          6           0        1.721982    0.099457    0.003326
      2          8           0        0.470202   -0.515017   -0.055401
      3          1           0        2.447430   -0.712080   -0.004020
      4          1           0        1.826754    0.683310    0.919330
      5          1           0        1.879602    0.744455   -0.862716
      6          8           0       -0.470202    0.515017   -0.055402
      7          6           0       -1.721982   -0.099457    0.003326
      8          1           0       -1.879602   -0.744457   -0.862715
      9          1           0       -2.447430    0.712080   -0.004022
     10          1           0       -1.826755   -0.683308    0.919331
 ---------------------------------------------------------------------
                    Distance matrix (angstroms):
                    1          2          3          4          5
     1  C    0.000000
     2  O    1.395700   0.000000
     3  H    1.088541   1.987687   0.000000
     4  H    1.091295   2.055802   1.784636   0.000000
     5  H    1.091282   2.055343   1.783615   1.783878   0.000000
     6  O    2.231997   1.394751   3.165594   2.500887   2.495191
     7  C    3.449703   2.231997   4.214185   3.747708   3.799161
     8  H    3.799161   2.495191   4.411531   4.353307   4.043324
     9  H    4.214185   3.165594   5.097831   4.372877   4.411531
    10  H    3.747708   2.500887   4.372877   3.900740   4.353307
                    6          7          8          9         10
     6  O    0.000000
     7  C    1.395700   0.000000
     8  H    2.055343   1.091282   0.000000
     9  H    1.987687   1.088541   1.783615   0.000000
    10  H    2.055802   1.091295   1.783878   1.784636   0.000000
 Stoichiometry    C2H6O2
 Framework group  C1[X(C2H6O2)]
 Deg. of freedom    24
 Full point group                 C1      NOp   1
 Largest Abelian subgroup         C1      NOp   1
 Largest concise Abelian subgroup C1      NOp   1
                         Standard orientation:                         
 ---------------------------------------------------------------------
 Center     Atomic      Atomic             Coordinates (Angstroms)
 Number     Number       Type             X           Y           Z
 ---------------------------------------------------------------------
      1          6           0        1.721965    0.099755    0.025130
      2          8           0        0.470292   -0.514936   -0.033597
      3          1           0        2.447553   -0.711657    0.017783
      4          1           0        1.826636    0.683626    0.941134
      5          1           0        1.879473    0.744780   -0.840913
      6          8           0       -0.470292    0.514936   -0.033598
      7          6           0       -1.721965   -0.099755    0.025130
      8          1           0       -1.879473   -0.744782   -0.840912
      9          1           0       -2.447553    0.711657    0.017781
     10          1           0       -1.826636   -0.683624    0.941135
 ---------------------------------------------------------------------
 Rotational constants (GHZ):     33.6272197      4.7031183      4.3581563
 Standard basis: CC-pVDZ (5D, 7F)
 There are    90 symmetry adapted cartesian basis functions of A   symmetry.
 There are    86 symmetry adapted basis functions of A   symmetry.
    86 basis functions,   174 primitive gaussians,    90 cartesian basis functions
    17 alpha electrons       17 beta electrons
       nuclear repulsion energy       136.1331580121 Hartrees.
 NAtoms=   10 NActive=   10 NUniq=   10 SFac= 1.00D+00 NAtFMM=   60 NAOKFM=F Big=F
 Integral buffers will be    131072 words long.
 Raffenetti 1 integral format.
 Two-electron integral symmetry is turned on.
 One-electron integrals computed using PRISM.
 NBasis=    86 RedAO= T EigKep=  1.43D-02  NBF=    86
 NBsUse=    86 1.00D-06 EigRej= -1.00D+00 NBFU=    86
 Initial guess from the checkpoint file:  "/blue/chm6586/le.chen/hw3/q2/Gau-118158.chk"
 B after Tr=     0.000000    0.000000    0.000000
         Rot=    1.000000    0.000000    0.000000    0.000006 Ang=   0.00 deg.
 Keep R1 ints in memory in canonical form, NReq=7942962.
 Requested convergence on RMS density matrix=1.00D-08 within 128 cycles.
 Requested convergence on MAX density matrix=1.00D-06.
 Requested convergence on             energy=1.00D-06.
 No special actions if energy rises.
 SCF Done:  E(RHF) =  -228.847026344     A.U. after    8 cycles
            NFock=  8  Conv=0.76D-08     -V/T= 2.0001
 Calling FoFJK, ICntrl=      2127 FMM=F ISym2X=0 I1Cent= 0 IOpClX= 0 NMat=1 NMatS=1 NMatT=0.
 ***** Axes restored to original set *****
 -------------------------------------------------------------------
 Center     Atomic                   Forces (Hartrees/Bohr)
 Number     Number              X              Y              Z
 -------------------------------------------------------------------
      1        6           0.000030128   -0.000039011   -0.000054122
      2        8           0.000052114    0.000024500    0.000008495
      3        1           0.000016537    0.000007543    0.000028961
      4        1           0.000006360   -0.000010206    0.000006563
      5        1          -0.000019952    0.000005164    0.000010103
      6        8          -0.000052114   -0.000024499    0.000008495
      7        6          -0.000030129    0.000039011   -0.000054134
      8        1           0.000019954   -0.000005161    0.000010109
      9        1          -0.000016537   -0.000007543    0.000028962
     10        1          -0.000006361    0.000010203    0.000006568
 -------------------------------------------------------------------
 Cartesian Forces:  Max     0.000054134 RMS     0.000026623

 GradGradGradGradGradGradGradGradGradGradGradGradGradGradGradGradGradGrad
 Berny optimization.
 Using GEDIIS/GDIIS optimizer.
 FormGI is forming the generalized inverse of G from B-inverse, IUseBI=4.
 Internal  Forces:  Max     0.000072710 RMS     0.000027392
 Search for a local minimum.
 Step number   3 out of a maximum of  100 on scan point     2 out of    73
 All quantities printed in internal units (Hartrees-Bohrs-Radians)
 Mixed Optimization -- En-DIIS/RFO-DIIS
 Swapping is turned off.
 Update second derivatives using D2CorX and points    1    2    3
 DE= -2.45D-07 DEPred=-2.90D-07 R= 8.46D-01
 Trust test= 8.46D-01 RLast= 8.47D-03 DXMaxT set to 3.00D-01
 ITU=  0  0  0
     Eigenvalues ---    0.00655   0.01749   0.10285   0.10365   0.10827
     Eigenvalues ---    0.12526   0.15998   0.16000   0.16000   0.16000
     Eigenvalues ---    0.16096   0.16653   0.25000   0.32375   0.34665
     Eigenvalues ---    0.34665   0.34667   0.34804   0.34982   0.35260
     Eigenvalues ---    0.46343   0.46739   0.494551000.000001000.00000
     Eigenvalues --- 1000.000001000.000001000.000001000.000001000.00000
 En-DIIS/RFO-DIIS IScMMF=        0 using points:     3    2
 RFO step:  Lambda=-4.10079261D-08.
 DidBck=F Rises=F RFO-DIIS coefs:    0.86523    0.13477
 Iteration  1 RMS(Cart)=  0.00029996 RMS(Int)=  0.00000005
 Iteration  2 RMS(Cart)=  0.00000005 RMS(Int)=  0.00000000
 Iteration  1 RMS(Cart)=  0.00000000 RMS(Int)=  0.00000000
 Variable       Old X    -DE/DX   Delta X   Delta X   Delta X     New X
                                 (Linear)    (Quad)   (Total)
    R1        2.63749   0.00001   0.00001   0.00001   0.00002   2.63751
    R2        2.05704   0.00001   0.00000   0.00001   0.00001   2.05705
    R3        2.06225   0.00000   0.00000   0.00000   0.00000   2.06225
    R4        2.06222  -0.00001   0.00000  -0.00002  -0.00002   2.06221
    R5        2.63570   0.00007   0.00002   0.00009   0.00011   2.63581
    R6        2.63749   0.00001   0.00001   0.00001   0.00002   2.63751
    R7        2.06222  -0.00001   0.00000  -0.00002  -0.00002   2.06221
    R8        2.05704   0.00001   0.00000   0.00001   0.00001   2.05705
    R9        2.06225   0.00000   0.00000   0.00000   0.00000   2.06225
    A1        1.84337   0.00003   0.00002   0.00016   0.00019   1.84355
    A2        1.93582  -0.00001  -0.00002  -0.00005  -0.00007   1.93574
    A3        1.93517  -0.00002   0.00001  -0.00009  -0.00008   1.93509
    A4        1.91829  -0.00003  -0.00005  -0.00013  -0.00018   1.91812
    A5        1.91668   0.00002   0.00004   0.00013   0.00017   1.91685
    A6        1.91351   0.00000   0.00000  -0.00001  -0.00002   1.91349
    A7        1.85416   0.00007   0.00004   0.00018   0.00022   1.85437
    A8        1.85416   0.00007   0.00004   0.00018   0.00022   1.85437
    A9        1.93517  -0.00002   0.00001  -0.00009  -0.00008   1.93509
   A10        1.84337   0.00003   0.00002   0.00016   0.00019   1.84355
   A11        1.93582  -0.00001  -0.00002  -0.00005  -0.00007   1.93574
   A12        1.91668   0.00002   0.00004   0.00013   0.00017   1.91685
   A13        1.91351   0.00000   0.00000  -0.00001  -0.00002   1.91349
   A14        1.91829  -0.00003  -0.00005  -0.00013  -0.00018   1.91812
    D1       -3.13507  -0.00002  -0.00050   0.00064   0.00014  -3.13493
    D2        1.07055   0.00000  -0.00045   0.00073   0.00028   1.07082
    D3       -1.05977   0.00002  -0.00044   0.00084   0.00041  -1.05936
    D4       -3.05391  -0.00002   0.00000   0.00000   0.00000  -3.05391
    D5       -1.05977   0.00002  -0.00044   0.00084   0.00041  -1.05936
    D6       -3.13507  -0.00002  -0.00050   0.00064   0.00014  -3.13493
    D7        1.07055   0.00000  -0.00045   0.00073   0.00028   1.07082
         Item               Value     Threshold  Converged?
 Maximum Force            0.000073     0.000450     YES
 RMS     Force            0.000028     0.000300     YES
 Maximum Displacement     0.000587     0.001800     YES
 RMS     Displacement     0.000300     0.001200     YES
 Predicted change in Energy=-4.183496D-08
 Optimization completed.
    -- Stationary point found.
                           ----------------------------
                           !   Optimized Parameters   !
                           ! (Angstroms and Degrees)  !
 --------------------------                            --------------------------
 ! Name  Definition              Value          Derivative Info.                !
 --------------------------------------------------------------------------------
 ! R1    R(1,2)                  1.3957         -DE/DX =    0.0                 !
 ! R2    R(1,3)                  1.0885         -DE/DX =    0.0                 !
 ! R3    R(1,4)                  1.0913         -DE/DX =    0.0                 !
 ! R4    R(1,5)                  1.0913         -DE/DX =    0.0                 !
 ! R5    R(2,6)                  1.3948         -DE/DX =    0.0001              !
 ! R6    R(6,7)                  1.3957         -DE/DX =    0.0                 !
 ! R7    R(7,8)                  1.0913         -DE/DX =    0.0                 !
 ! R8    R(7,9)                  1.0885         -DE/DX =    0.0                 !
 ! R9    R(7,10)                 1.0913         -DE/DX =    0.0                 !
 ! A1    A(2,1,3)              105.6171         -DE/DX =    0.0                 !
 ! A2    A(2,1,4)              110.9143         -DE/DX =    0.0                 !
 ! A3    A(2,1,5)              110.8771         -DE/DX =    0.0                 !
 ! A4    A(3,1,4)              109.9101         -DE/DX =    0.0                 !
 ! A5    A(3,1,5)              109.8176         -DE/DX =    0.0                 !
 ! A6    A(4,1,5)              109.6361         -DE/DX =    0.0                 !
 ! A7    A(1,2,6)              106.2353         -DE/DX =    0.0001              !
 ! A8    A(2,6,7)              106.2353         -DE/DX =    0.0001              !
 ! A9    A(6,7,8)              110.8771         -DE/DX =    0.0                 !
 ! A10   A(6,7,9)              105.6171         -DE/DX =    0.0                 !
 ! A11   A(6,7,10)             110.9143         -DE/DX =    0.0                 !
 ! A12   A(8,7,9)              109.8176         -DE/DX =    0.0                 !
 ! A13   A(8,7,10)             109.6361         -DE/DX =    0.0                 !
 ! A14   A(9,7,10)             109.9101         -DE/DX =    0.0                 !
 ! D1    D(3,1,2,6)           -179.6262         -DE/DX =    0.0                 !
 ! D2    D(4,1,2,6)             61.3377         -DE/DX =    0.0                 !
 ! D3    D(5,1,2,6)            -60.7203         -DE/DX =    0.0                 !
 ! D4    D(1,2,6,7)           -174.9764         -DE/DX =    0.0                 !
 ! D5    D(2,6,7,8)            -60.7203         -DE/DX =    0.0                 !
 ! D6    D(2,6,7,9)           -179.6262         -DE/DX =    0.0                 !
 ! D7    D(2,6,7,10)            61.3377         -DE/DX =    0.0                 !
 --------------------------------------------------------------------------------
 Iteration  1 RMS(Cart)=  0.04193155 RMS(Int)=  0.00090016
 Iteration  2 RMS(Cart)=  0.00141768 RMS(Int)=  0.00000028
 Iteration  3 RMS(Cart)=  0.00000032 RMS(Int)=  0.00000000
 Iteration  1 RMS(Cart)=  0.00000000 RMS(Int)=  0.00000000
 GradGradGradGradGradGradGradGradGradGradGradGradGradGradGradGradGradGrad

                          Input orientation:                          
 ---------------------------------------------------------------------
 Center     Atomic      Atomic             Coordinates (Angstroms)
 Number     Number       Type             X           Y           Z
 ---------------------------------------------------------------------
      1          6           0        1.719186    0.098753    0.006142
      2          8           0        0.470872   -0.514445   -0.110918
      3          1           0        2.445892   -0.711660   -0.001844
      4          1           0        1.793575    0.655175    0.941977
      5          1           0        1.903349    0.769360   -0.834837
      6          8           0       -0.470872    0.514445   -0.110919
      7          6           0       -1.719186   -0.098753    0.006142
      8          1           0       -1.903348   -0.769361   -0.834836
      9          1           0       -2.445892    0.711660   -0.001846
     10          1           0       -1.793575   -0.655173    0.941978
 ---------------------------------------------------------------------
                    Distance matrix (angstroms):
                    1          2          3          4          5
     1  C    0.000000
     2  O    1.395709   0.000000
     3  H    1.088547   1.987837   0.000000
     4  H    1.091295   2.055758   1.784532   0.000000
     5  H    1.091273   2.055287   1.783718   1.783860   0.000000
     6  O    2.232231   1.394810   3.165871   2.501222   2.495188
     7  C    3.444041   2.232231   4.209940   3.712639   3.818851
     8  H    3.818851   2.495188   4.428667   4.342075   4.105923
     9  H    4.209940   3.165871   5.094643   4.343624   4.428667
    10  H    3.712639   2.501222   4.343624   3.818986   4.342074
                    6          7          8          9         10
     6  O    0.000000
     7  C    1.395709   0.000000
     8  H    2.055287   1.091273   0.000000
     9  H    1.987837   1.088547   1.783718   0.000000
    10  H    2.055759   1.091295   1.783860   1.784532   0.000000
 Stoichiometry    C2H6O2
 Framework group  C1[X(C2H6O2)]
 Deg. of freedom    24
 Full point group                 C1      NOp   1
 Largest Abelian subgroup         C1      NOp   1
 Largest concise Abelian subgroup C1      NOp   1
                         Standard orientation:                         
 ---------------------------------------------------------------------
 Center     Atomic      Atomic             Coordinates (Angstroms)
 Number     Number       Type             X           Y           Z
 ---------------------------------------------------------------------
      1          6           0        1.719116    0.099980    0.049978
      2          8           0        0.471239   -0.514109   -0.067083
      3          1           0        2.446399   -0.709914    0.041991
      4          1           0        1.793107    0.656455    0.985812
      5          1           0        1.902799    0.770718   -0.791002
      6          8           0       -0.471239    0.514109   -0.067084
      7          6           0       -1.719116   -0.099980    0.049977
      8          1           0       -1.902799   -0.770720   -0.791001
      9          1           0       -2.446399    0.709914    0.041989
     10          1           0       -1.793107   -0.656453    0.985813
 ---------------------------------------------------------------------
 Rotational constants (GHZ):     33.3237927      4.7084900      4.3698473
 Standard basis: CC-pVDZ (5D, 7F)
 There are    90 symmetry adapted cartesian basis functions of A   symmetry.
 There are    86 symmetry adapted basis functions of A   symmetry.
    86 basis functions,   174 primitive gaussians,    90 cartesian basis functions
    17 alpha electrons       17 beta electrons
       nuclear repulsion energy       136.1490096740 Hartrees.
 NAtoms=   10 NActive=   10 NUniq=   10 SFac= 1.00D+00 NAtFMM=   60 NAOKFM=F Big=F
 Integral buffers will be    131072 words long.
 Raffenetti 1 integral format.
 Two-electron integral symmetry is turned on.
 One-electron integrals computed using PRISM.
 NBasis=    86 RedAO= T EigKep=  1.43D-02  NBF=    86
 NBsUse=    86 1.00D-06 EigRej= -1.00D+00 NBFU=    86
 Initial guess from the checkpoint file:  "/blue/chm6586/le.chen/hw3/q2/Gau-118158.chk"
 B after Tr=     0.000000    0.000000    0.000000
         Rot=    1.000000    0.000000    0.000000   -0.000265 Ang=  -0.03 deg.
 ExpMin= 1.22D-01 ExpMax= 1.17D+04 ExpMxC= 4.01D+02 IAcc=1 IRadAn=         1 AccDes= 0.00D+00
 Harris functional with IExCor=  205 and IRadAn=       1 diagonalized for initial guess.
 HarFok:  IExCor=  205 AccDes= 0.00D+00 IRadAn=         1 IDoV= 1 UseB2=F ITyADJ=14
 ICtDFT=  3500011 ScaDFX=  1.000000  1.000000  1.000000  1.000000
 FoFCou: FMM=F IPFlag=           0 FMFlag=      100000 FMFlg1=           0
         NFxFlg=           0 DoJE=T BraDBF=F KetDBF=T FulRan=T
         wScrn=  0.000000 ICntrl=     500 IOpCl=  0 I1Cent=   200000004 NGrid=           0
         NMat0=    1 NMatS0=      1 NMatT0=    0 NMatD0=    1 NMtDS0=    0 NMtDT0=    0
 Petite list used in FoFCou.
 Keep R1 ints in memory in canonical form, NReq=7942962.
 Requested convergence on RMS density matrix=1.00D-08 within 128 cycles.
 Requested convergence on MAX density matrix=1.00D-06.
 Requested convergence on             energy=1.00D-06.
 No special actions if energy rises.
 SCF Done:  E(RHF) =  -228.847023030     A.U. after   11 cycles
            NFock= 11  Conv=0.68D-08     -V/T= 2.0001
 Calling FoFJK, ICntrl=      2127 FMM=F ISym2X=0 I1Cent= 0 IOpClX= 0 NMat=1 NMatS=1 NMatT=0.
 ***** Axes restored to original set *****
 -------------------------------------------------------------------
 Center     Atomic                   Forces (Hartrees/Bohr)
 Number     Number              X              Y              Z
 -------------------------------------------------------------------
      1        6           0.000052066   -0.000019780    0.000058138
      2        8          -0.000049293    0.000156672    0.000004538
      3        1           0.000020179   -0.000001747   -0.000075190
      4        1           0.000018586    0.000018053    0.000004755
      5        1           0.000013976   -0.000015134    0.000007757
      6        8           0.000049293   -0.000156672    0.000004540
      7        6          -0.000052066    0.000019780    0.000058136
      8        1          -0.000013976    0.000015133    0.000007758
      9        1          -0.000020179    0.000001747   -0.000075189
     10        1          -0.000018585   -0.000018053    0.000004756
 -------------------------------------------------------------------
 Cartesian Forces:  Max     0.000156672 RMS     0.000052103

 GradGradGradGradGradGradGradGradGradGradGradGradGradGradGradGradGradGrad
 Berny optimization.
 FormGI is forming the generalized inverse of G from B-inverse, IUseBI=4.
 Internal  Forces:  Max     0.000189339 RMS     0.000063789
 Search for a local minimum.
 Step number   1 out of a maximum of  100 on scan point     3 out of    73
 All quantities printed in internal units (Hartrees-Bohrs-Radians)
 Mixed Optimization -- RFO/linear search
 Second derivative matrix not updated -- first step.
 ITU=  0
     Eigenvalues ---    0.00655   0.01749   0.10286   0.10366   0.10826
     Eigenvalues ---    0.12525   0.15998   0.16000   0.16000   0.16000
     Eigenvalues ---    0.16096   0.16653   0.25000   0.32375   0.34665
     Eigenvalues ---    0.34665   0.34667   0.34804   0.34982   0.35260
     Eigenvalues ---    0.46343   0.46739   0.494551000.000001000.00000
     Eigenvalues --- 1000.000001000.000001000.000001000.000001000.00000
 RFO step:  Lambda=-1.95709699D-06 EMin= 6.55338438D-03
 Linear search not attempted -- first point.
 Iteration  1 RMS(Cart)=  0.00560053 RMS(Int)=  0.00001749
 Iteration  2 RMS(Cart)=  0.00001795 RMS(Int)=  0.00000005
 Iteration  3 RMS(Cart)=  0.00000000 RMS(Int)=  0.00000005
 Iteration  1 RMS(Cart)=  0.00000000 RMS(Int)=  0.00000000
 Variable       Old X    -DE/DX   Delta X   Delta X   Delta X     New X
                                 (Linear)    (Quad)   (Total)
    R1        2.63751   0.00009   0.00000   0.00016   0.00016   2.63766
    R2        2.05705   0.00002   0.00000   0.00004   0.00004   2.05710
    R3        2.06225   0.00001   0.00000   0.00005   0.00005   2.06230
    R4        2.06221  -0.00001   0.00000  -0.00004  -0.00004   2.06216
    R5        2.63581  -0.00006   0.00000  -0.00016  -0.00016   2.63565
    R6        2.63751   0.00009   0.00000   0.00016   0.00016   2.63766
    R7        2.06221  -0.00001   0.00000  -0.00004  -0.00004   2.06216
    R8        2.05705   0.00002   0.00000   0.00004   0.00004   2.05710
    R9        2.06225   0.00001   0.00000   0.00005   0.00005   2.06230
    A1        1.84355   0.00000   0.00000   0.00008   0.00008   1.84363
    A2        1.93574   0.00005   0.00000   0.00041   0.00041   1.93616
    A3        1.93509  -0.00001   0.00000  -0.00028  -0.00028   1.93481
    A4        1.91812   0.00003   0.00000   0.00036   0.00036   1.91848
    A5        1.91685  -0.00006   0.00000  -0.00052  -0.00052   1.91633
    A6        1.91349  -0.00001   0.00000  -0.00006  -0.00006   1.91344
    A7        1.85437   0.00019   0.00000   0.00076   0.00076   1.85513
    A8        1.85437   0.00019   0.00000   0.00076   0.00076   1.85513
    A9        1.93509  -0.00001   0.00000  -0.00028  -0.00028   1.93481
   A10        1.84355   0.00000   0.00000   0.00008   0.00008   1.84363
   A11        1.93574   0.00005   0.00000   0.00041   0.00041   1.93616
   A12        1.91685  -0.00006   0.00000  -0.00052  -0.00052   1.91633
   A13        1.91349  -0.00001   0.00000  -0.00006  -0.00006   1.91344
   A14        1.91812   0.00003   0.00000   0.00036   0.00036   1.91848
    D1       -3.13493   0.00008   0.00000   0.00682   0.00682  -3.12811
    D2        1.07082   0.00002   0.00000   0.00612   0.00612   1.07694
    D3       -1.05936   0.00001   0.00000   0.00610   0.00610  -1.05327
    D4       -2.96665  -0.00006   0.00000   0.00000   0.00000  -2.96665
    D5       -1.05936   0.00001   0.00000   0.00609   0.00609  -1.05327
    D6       -3.13493   0.00008   0.00000   0.00682   0.00682  -3.12811
    D7        1.07082   0.00002   0.00000   0.00611   0.00611   1.07694
         Item               Value     Threshold  Converged?
 Maximum Force            0.000189     0.000450     YES
 RMS     Force            0.000064     0.000300     YES
 Maximum Displacement     0.013086     0.001800     NO 
 RMS     Displacement     0.005601     0.001200     NO 
 Predicted change in Energy=-9.785480D-07
 GradGradGradGradGradGradGradGradGradGradGradGradGradGradGradGradGradGrad

                          Input orientation:                          
 ---------------------------------------------------------------------
 Center     Atomic      Atomic             Coordinates (Angstroms)
 Number     Number       Type             X           Y           Z
 ---------------------------------------------------------------------
      1          6           0        1.719656    0.098663    0.006402
      2          8           0        0.471081   -0.514196   -0.110640
      3          1           0        2.446629   -0.711438   -0.008769
      4          1           0        1.796906    0.650067    0.944999
      5          1           0        1.901115    0.773842   -0.831472
      6          8           0       -0.471081    0.514196   -0.110641
      7          6           0       -1.719656   -0.098663    0.006401
      8          1           0       -1.901115   -0.773844   -0.831471
      9          1           0       -2.446629    0.711438   -0.008771
     10          1           0       -1.796906   -0.650065    0.945000
 ---------------------------------------------------------------------
                    Distance matrix (angstroms):
                    1          2          3          4          5
     1  C    0.000000
     2  O    1.395792   0.000000
     3  H    1.088570   1.987982   0.000000
     4  H    1.091320   2.056136   1.784799   0.000000
     5  H    1.091250   2.055150   1.783391   1.783825   0.000000
     6  O    2.232867   1.394725   3.166321   2.505315   2.492856
     7  C    3.444968   2.232867   4.211134   3.715881   3.817497
     8  H    3.817497   2.492856   4.425338   4.342664   4.105154
     9  H    4.211134   3.166321   5.095935   4.349832   4.425338
    10  H    3.715881   2.505315   4.349832   3.821758   4.342664
                    6          7          8          9         10
     6  O    0.000000
     7  C    1.395792   0.000000
     8  H    2.055150   1.091250   0.000000
     9  H    1.987982   1.088570   1.783391   0.000000
    10  H    2.056136   1.091320   1.783825   1.784799   0.000000
 Stoichiometry    C2H6O2
 Framework group  C1[X(C2H6O2)]
 Deg. of freedom    24
 Full point group                 C1      NOp   1
 Largest Abelian subgroup         C1      NOp   1
 Largest concise Abelian subgroup C1      NOp   1
                         Standard orientation:                         
 ---------------------------------------------------------------------
 Center     Atomic      Atomic             Coordinates (Angstroms)
 Number     Number       Type             X           Y           Z
 ---------------------------------------------------------------------
      1          6           0        1.719583    0.099934    0.050046
      2          8           0        0.471461   -0.513848   -0.066995
      3          1           0        2.447154   -0.709629    0.034876
      4          1           0        1.796425    0.651395    0.988644
      5          1           0        1.900543    0.775247   -0.787828
      6          8           0       -0.471461    0.513848   -0.066997
      7          6           0       -1.719583   -0.099934    0.050046
      8          1           0       -1.900543   -0.775249   -0.787827
      9          1           0       -2.447154    0.709630    0.034874
     10          1           0       -1.796425   -0.651393    0.988644
 ---------------------------------------------------------------------
 Rotational constants (GHZ):     33.3434642      4.7058911      4.3679379
 Standard basis: CC-pVDZ (5D, 7F)
 There are    90 symmetry adapted cartesian basis functions of A   symmetry.
 There are    86 symmetry adapted basis functions of A   symmetry.
    86 basis functions,   174 primitive gaussians,    90 cartesian basis functions
    17 alpha electrons       17 beta electrons
       nuclear repulsion energy       136.1351104771 Hartrees.
 NAtoms=   10 NActive=   10 NUniq=   10 SFac= 1.00D+00 NAtFMM=   60 NAOKFM=F Big=F
 Integral buffers will be    131072 words long.
 Raffenetti 1 integral format.
 Two-electron integral symmetry is turned on.
 One-electron integrals computed using PRISM.
 NBasis=    86 RedAO= T EigKep=  1.43D-02  NBF=    86
 NBsUse=    86 1.00D-06 EigRej= -1.00D+00 NBFU=    86
 Initial guess from the checkpoint file:  "/blue/chm6586/le.chen/hw3/q2/Gau-118158.chk"
 B after Tr=     0.000000    0.000000    0.000000
         Rot=    1.000000    0.000000    0.000000   -0.000021 Ang=   0.00 deg.
 Keep R1 ints in memory in canonical form, NReq=7942934.
 Requested convergence on RMS density matrix=1.00D-08 within 128 cycles.
 Requested convergence on MAX density matrix=1.00D-06.
 Requested convergence on             energy=1.00D-06.
 No special actions if energy rises.
 SCF Done:  E(RHF) =  -228.847023794     A.U. after    8 cycles
            NFock=  8  Conv=0.70D-08     -V/T= 2.0001
 Calling FoFJK, ICntrl=      2127 FMM=F ISym2X=0 I1Cent= 0 IOpClX= 0 NMat=1 NMatS=1 NMatT=0.
 ***** Axes restored to original set *****
 -------------------------------------------------------------------
 Center     Atomic                   Forces (Hartrees/Bohr)
 Number     Number              X              Y              Z
 -------------------------------------------------------------------
      1        6          -0.000049411    0.000060395   -0.000014866
      2        8          -0.000076698   -0.000052557    0.000007906
      3        1          -0.000027598   -0.000010442   -0.000002271
      4        1           0.000007351    0.000011678    0.000008842
      5        1           0.000006805   -0.000005410    0.000000381
      6        8           0.000076698    0.000052557    0.000007928
      7        6           0.000049412   -0.000060396   -0.000014868
      8        1          -0.000006806    0.000005403    0.000000380
      9        1           0.000027599    0.000010442   -0.000002272
     10        1          -0.000007350   -0.000011671    0.000008840
 -------------------------------------------------------------------
 Cartesian Forces:  Max     0.000076698 RMS     0.000032902

 GradGradGradGradGradGradGradGradGradGradGradGradGradGradGradGradGradGrad
 Berny optimization.
 Using GEDIIS/GDIIS optimizer.
 FormGI is forming the generalized inverse of G from B-inverse, IUseBI=4.
 Internal  Forces:  Max     0.000133723 RMS     0.000043158
 Search for a local minimum.
 Step number   2 out of a maximum of  100 on scan point     3 out of    73
 All quantities printed in internal units (Hartrees-Bohrs-Radians)
 Mixed Optimization -- En-DIIS/RFO-DIIS
 Update second derivatives using D2CorX and points    1    2
 DE= -7.64D-07 DEPred=-9.79D-07 R= 7.81D-01
 Trust test= 7.81D-01 RLast= 1.56D-02 DXMaxT set to 3.00D-01
 ITU=  0  0
 Use linear search instead of GDIIS.
     Eigenvalues ---    0.00715   0.01749   0.10285   0.10344   0.10826
     Eigenvalues ---    0.12283   0.15896   0.16000   0.16000   0.16000
     Eigenvalues ---    0.16123   0.16543   0.25000   0.34367   0.34652
     Eigenvalues ---    0.34665   0.34665   0.34821   0.34982   0.36667
     Eigenvalues ---    0.46267   0.46343   0.522311000.000001000.00000
     Eigenvalues --- 1000.000001000.000001000.000001000.000001000.00000
[...]
           R6           1.39971   1.39947   1.39919   1.39889   1.39857
           R7           1.09179   1.09207   1.09226   1.09235   1.09236
           R8           1.08882   1.08888   1.08891   1.08894   1.08896
           R9           1.09082   1.09077   1.09073   1.09071   1.09073
           A1         105.40021 105.49668 105.55486 105.59200 105.60815
           A2         110.80965 110.82180 110.83248 110.83826 110.84510
           A3         111.91895 111.71329 111.55531 111.42875 111.33839
           A4         109.82209 109.82861 109.82508 109.80904 109.78695
           A5         109.16685 109.29535 109.40658 109.51065 109.60253
           A6         109.62741 109.59856 109.58572 109.58503 109.58492
           A7         109.02363 108.55845 108.19876 107.91037 107.68041
           A8         109.02363 108.55845 108.19876 107.91037 107.68041
           A9         111.91895 111.71329 111.55531 111.42875 111.33839
           A10        105.40021 105.49668 105.55486 105.59200 105.60815
           A11        110.80965 110.82180 110.83248 110.83826 110.84510
           A12        109.16685 109.29535 109.40658 109.51065 109.60253
           A13        109.62741 109.59856 109.58572 109.58503 109.58492
           A14        109.82209 109.82861 109.82508 109.80904 109.78695
           D1         178.05182 178.86664 179.20731 179.12739 178.95009
           D2          59.30354  60.04773  60.35281  60.26716  60.10309
           D3         -63.39859 -62.48044 -62.05537 -62.05563 -62.16132
           D4          95.02360 100.02360 105.02360 110.02360 115.02360
           D5         -63.39859 -62.48044 -62.05537 -62.05563 -62.16132
           D6         178.05182 178.86664 179.20731 179.12739 178.95009
           D7          59.30354  60.04773  60.35281  60.26716  60.10309
                          61        62        63        64        65
     Eigenvalues --  -228.84684-228.84692-228.84696-228.84698-228.84700
           R1           1.39823   1.39790   1.39757   1.39725   1.39695
           R2           1.08896   1.08894   1.08891   1.08887   1.08883
           R3           1.09077   1.09082   1.09088   1.09095   1.09101
           R4           1.09229   1.09218   1.09205   1.09191   1.09178
           R5           1.38832   1.38915   1.39000   1.39083   1.39162
           R6           1.39823   1.39790   1.39757   1.39725   1.39695
           R7           1.09229   1.09218   1.09205   1.09191   1.09178
           R8           1.08896   1.08894   1.08891   1.08887   1.08883
           R9           1.09077   1.09082   1.09088   1.09095   1.09101
           A1         105.61262 105.61151 105.60871 105.60646 105.60575
           A2         110.84913 110.85074 110.85043 110.84878 110.84643
           A3         111.27428 111.22631 111.18731 111.15263 111.11967
           A4         109.76195 109.73747 109.71645 109.70108 109.69280
           A5         109.68391 109.75518 109.81620 109.86676 109.90656
           A6         109.58563 109.58729 109.59007 109.59403 109.59902
           A7         107.48646 107.31370 107.15379 107.00280 106.85990
           A8         107.48646 107.31370 107.15379 107.00280 106.85990
           A9         111.27428 111.22631 111.18731 111.15263 111.11967
           A10        105.61262 105.61151 105.60871 105.60646 105.60575
           A11        110.84913 110.85074 110.85043 110.84878 110.84643
           A12        109.68391 109.75518 109.81620 109.86676 109.90656
           A13        109.58563 109.58729 109.59007 109.59403 109.59902
           A14        109.76195 109.73747 109.71645 109.70108 109.69280
           D1         178.73940 178.53887 178.37573 178.26595 178.21816
           D2          59.91748  59.74597  59.60972  59.52048  59.48422
           D3         -62.30601 -62.44742 -62.55994 -62.62904 -62.64721
           D4         120.02360 125.02360 130.02360 135.02360 140.02360
           D5         -62.30601 -62.44742 -62.55994 -62.62904 -62.64721
           D6         178.73940 178.53887 178.37573 178.26596 178.21816
           D7          59.91748  59.74597  59.60972  59.52048  59.48422
                          66        67        68        69        70
     Eigenvalues --  -228.84700-228.84701-228.84701-228.84702-228.84702
           R1           1.39667   1.39641   1.39619   1.39601   1.39587
           R2           1.08878   1.08873   1.08868   1.08863   1.08859
           R3           1.09107   1.09112   1.09117   1.09120   1.09123
           R4           1.09167   1.09157   1.09149   1.09142   1.09137
           R5           1.39235   1.39300   1.39356   1.39403   1.39439
           R6           1.39667   1.39641   1.39619   1.39601   1.39587
           R7           1.09167   1.09157   1.09149   1.09142   1.09137
           R8           1.08878   1.08873   1.08868   1.08863   1.08859
           R9           1.09107   1.09112   1.09117   1.09120   1.09123
           A1         105.60679 105.60929 105.61272 105.61647 105.61997
           A2         110.84408 110.84251 110.84257 110.84509 110.85079
           A3         111.08732 111.05535 111.02399 110.99364 110.96480
           A4         109.69238 109.70001 109.71534 109.73754 109.76535
           A5         109.93536 109.95308 109.95996 109.95657 109.94386
           A6         109.60477 109.61089 109.61698 109.62265 109.62752
           A7         106.72622 106.60394 106.49556 106.40350 106.32984
           A8         106.72622 106.60394 106.49556 106.40350 106.32984
           A9         111.08732 111.05535 111.02399 110.99364 110.96480
           A10        105.60679 105.60929 105.61272 105.61647 105.61997
           A11        110.84408 110.84251 110.84257 110.84509 110.85079
           A12        109.93536 109.95308 109.95996 109.95657 109.94386
           A13        109.60477 109.61089 109.61698 109.62265 109.62752
           A14        109.69238 109.70001 109.71534 109.73754 109.76535
           D1         178.23642 178.32194 178.47369 178.68841 178.95991
           D2          59.50360  59.57938  59.71079  59.89549  60.12873
           D3         -62.61114 -62.51999 -62.37472 -62.17804 -61.93506
           D4         145.02360 150.02360 155.02360 160.02360 165.02360
           D5         -62.61114 -62.51999 -62.37472 -62.17804 -61.93506
           D6         178.23642 178.32194 178.47369 178.68840 178.95990
           D7          59.50360  59.57938  59.71079  59.89549  60.12873
                          71        72        73
     Eigenvalues --  -228.84702-228.84703-228.84703
           R1           1.39576   1.39570   1.39568
           R2           1.08856   1.08855   1.08854
           R3           1.09125   1.09127   1.09129
           R4           1.09133   1.09131   1.09128
           R5           1.39465   1.39480   1.39485
           R6           1.39576   1.39570   1.39568
           R7           1.09133   1.09131   1.09128
           R8           1.08856   1.08855   1.08854
           R9           1.09125   1.09127   1.09129
           A1         105.62275 105.62449 105.62503
           A2         110.86024 110.87371 110.89116
           A3         110.93799 110.91377 110.89269
           A4         109.79712 109.83092 109.86459
           A5         109.92315 109.89613 109.86475
           A6         109.63128 109.63366 109.63451
           A7         106.27621 106.24376 106.23309
           A8         106.27621 106.24376 106.23309
           A9         110.93799 110.91377 110.89269
           A10        105.62275 105.62449 105.62503
           A11        110.86024 110.87371 110.89116
           A12        109.92315 109.89613 109.86475
           A13        109.63128 109.63366 109.63451
           A14        109.79712 109.83092 109.86459
           D1         179.27881 179.63194-179.99714
           D2          60.40306  60.70766  61.02878
           D3         -61.65355 -61.34460 -61.02206
           D4         170.02360 175.02360-179.97640
           D5         -61.65356 -61.34460 -61.02206
           D6         179.27881 179.63194-179.99714
           D7          60.40306  60.70766  61.02878
                          Input orientation:                          
 ---------------------------------------------------------------------
 Center     Atomic      Atomic             Coordinates (Angstroms)
 Number     Number       Type             X           Y           Z
 ---------------------------------------------------------------------
      1          6           0        1.651026   -0.502642    0.000094
      2          8           0        0.578161    0.390042    0.000369
      3          1           0        2.546906    0.115675    0.000148
      4          1           0        1.634201   -1.131005   -0.891972
      5          1           0        1.634364   -1.131401    0.891883
      6          8           0       -0.578161   -0.390042    0.000370
      7          6           0       -1.651026    0.502642    0.000093
      8          1           0       -1.634364    1.131403    0.891881
      9          1           0       -2.546906   -0.115675    0.000148
     10          1           0       -1.634201    1.131003   -0.891974
 ---------------------------------------------------------------------
                    Distance matrix (angstroms):
                    1          2          3          4          5
     1  C    0.000000
     2  O    1.395681   0.000000
     3  H    1.088539   1.987771   0.000000
     4  H    1.091285   2.055499   1.784130   0.000000
     5  H    1.091285   2.055517   1.784131   1.783855   0.000000
     6  O    2.232030   1.394852   3.165722   2.497969   2.497935
     7  C    3.451688   2.232030   4.215731   3.775884   3.776133
     8  H    3.776133   2.497935   4.394304   4.357079   3.975533
     9  H    4.215731   3.165722   5.099064   4.394136   4.394304
    10  H    3.775884   2.497969   4.394136   3.974812   4.357079
                    6          7          8          9         10
     6  O    0.000000
     7  C    1.395681   0.000000
     8  H    2.055517   1.091285   0.000000
     9  H    1.987771   1.088539   1.784131   0.000000
    10  H    2.055499   1.091285   1.783855   1.784130   0.000000
 Stoichiometry    C2H6O2
 Framework group  C1[X(C2H6O2)]
 Deg. of freedom    24
 Full point group                 C1      NOp   1
 Largest Abelian subgroup         C1      NOp   1
 Largest concise Abelian subgroup C1      NOp   1
                         Standard orientation:                         
 ---------------------------------------------------------------------
 Center     Atomic      Atomic             Coordinates (Angstroms)
 Number     Number       Type             X           Y           Z
 ---------------------------------------------------------------------
      1          6           0        1.722963    0.099687    0.000116
      2          8           0        0.470045   -0.515229   -0.000159
      3          1           0        2.448031   -0.712219    0.000062
      4          1           0        1.854590    0.714339    0.892182
      5          1           0        1.854842    0.714686   -0.891673
      6          8           0       -0.470045    0.515229   -0.000160
      7          6           0       -1.722963   -0.099687    0.000117
      8          1           0       -1.854842   -0.714687   -0.891670
      9          1           0       -2.448031    0.712219    0.000062
     10          1           0       -1.854590   -0.714337    0.892185
 ---------------------------------------------------------------------
 Rotational constants (GHZ):     33.7297042      4.7010544      4.3539961

 **********************************************************************

            Population analysis using the SCF density.

 **********************************************************************

 Orbital symmetries:
       Occupied  (A) (A) (A) (A) (A) (A) (A) (A) (A) (A) (A) (A)
                 (A) (A) (A) (A) (A)
       Virtual   (A) (A) (A) (A) (A) (A) (A) (A) (A) (A) (A) (A)
                 (A) (A) (A) (A) (A) (A) (A) (A) (A) (A) (A) (A)
                 (A) (A) (A) (A) (A) (A) (A) (A) (A) (A) (A) (A)
                 (A) (A) (A) (A) (A) (A) (A) (A) (A) (A) (A) (A)
                 (A) (A) (A) (A) (A) (A) (A) (A) (A) (A) (A) (A)
                 (A) (A) (A) (A) (A) (A) (A) (A) (A)
 The electronic state is 1-A.
 Alpha  occ. eigenvalues --  -20.60769 -20.60735 -11.27754 -11.27754  -1.50156
 Alpha  occ. eigenvalues --   -1.23945  -0.93192  -0.89910  -0.69208  -0.68203
 Alpha  occ. eigenvalues --   -0.67450  -0.60207  -0.55562  -0.54927  -0.49841
 Alpha  occ. eigenvalues --   -0.48837  -0.40402
 Alpha virt. eigenvalues --    0.20104   0.20832   0.25253   0.26104   0.26492
 Alpha virt. eigenvalues --    0.28447   0.29757   0.32019   0.40532   0.62542
 Alpha virt. eigenvalues --    0.63156   0.64384   0.65597   0.73317   0.79284
 Alpha virt. eigenvalues --    0.85658   0.85897   0.86191   0.86839   0.87534
 Alpha virt. eigenvalues --    0.91542   1.09359   1.10816   1.11668   1.16043
 Alpha virt. eigenvalues --    1.16491   1.17430   1.37920   1.40563   1.42019
 Alpha virt. eigenvalues --    1.42090   1.54433   1.66803   1.67026   1.68143
 Alpha virt. eigenvalues --    1.83759   1.87291   1.87514   1.88997   1.92647
 Alpha virt. eigenvalues --    1.93582   1.94411   1.96534   2.00976   2.05030
 Alpha virt. eigenvalues --    2.14134   2.20827   2.31658   2.34249   2.35291
 Alpha virt. eigenvalues --    2.37154   2.37570   2.49040   2.60423   2.70243
 Alpha virt. eigenvalues --    2.74203   2.75388   2.76286   2.77965   2.83975
 Alpha virt. eigenvalues --    2.97050   3.06522   3.31724   3.38868   3.44113
 Alpha virt. eigenvalues --    3.48382   3.59719   3.69872   4.28537
          Condensed to atoms (all electrons):
               1          2          3          4          5          6
     1  C    4.316421   0.291199   0.412061   0.414569   0.414570  -0.061507
     2  O    0.291199   8.066180  -0.016677  -0.033104  -0.033099   0.074857
     3  H    0.412061  -0.016677   0.608331  -0.023619  -0.023620   0.003604
     4  H    0.414569  -0.033104  -0.023619   0.649339  -0.038996   0.004416
     5  H    0.414570  -0.033099  -0.023620  -0.038996   0.649331   0.004413
     6  O   -0.061507   0.074857   0.003604   0.004416   0.004413   8.066180
     7  C    0.006983  -0.061507  -0.000374   0.000243   0.000243   0.291199
     8  H    0.000243   0.004413   0.000015   0.000308  -0.000392  -0.033099
     9  H   -0.000374   0.003604   0.000019   0.000015   0.000015  -0.016677
    10  H    0.000243   0.004416   0.000015  -0.000393   0.000308  -0.033104
               7          8          9         10
     1  C    0.006983   0.000243  -0.000374   0.000243
     2  O   -0.061507   0.004413   0.003604   0.004416
     3  H   -0.000374   0.000015   0.000019   0.000015
     4  H    0.000243   0.000308   0.000015  -0.000393
     5  H    0.000243  -0.000392   0.000015   0.000308
     6  O    0.291199  -0.033099  -0.016677  -0.033104
     7  C    4.316421   0.414570   0.412061   0.414569
     8  H    0.414570   0.649331  -0.023620  -0.038996
     9  H    0.412061  -0.023620   0.608331  -0.023619
    10  H    0.414569  -0.038996  -0.023619   0.649339
 Mulliken charges:
               1
     1  C    0.205592
     2  O   -0.300284
     3  H    0.040244
     4  H    0.027221
     5  H    0.027228
     6  O   -0.300284
     7  C    0.205592
     8  H    0.027228
     9  H    0.040244
    10  H    0.027221
 Sum of Mulliken charges =   0.00000
 Mulliken charges with hydrogens summed into heavy atoms:
               1
     1  C    0.300284
     2  O   -0.300284
     6  O   -0.300284
     7  C    0.300284
 Electronic spatial extent (au):  <R**2>=            321.0388
 Charge=              0.0000 electrons
 Dipole moment (field-independent basis, Debye):
    X=              0.0000    Y=              0.0000    Z=              0.0007  Tot=              0.0007
 Quadrupole moment (field-independent basis, Debye-Ang):
   XX=            -18.1028   YY=            -26.0222   ZZ=            -24.9968
   XY=              0.4879   XZ=              0.0000   YZ=              0.0000
 Traceless Quadrupole moment (field-independent basis, Debye-Ang):
   XX=              4.9378   YY=             -2.9816   ZZ=             -1.9562
   XY=              0.4879   XZ=              0.0000   YZ=              0.0000
 Octapole moment (field-independent basis, Debye-Ang**2):
  XXX=              0.0000  YYY=              0.0000  ZZZ=             -0.0002  XYY=              0.0000
  XXY=              0.0000  XXZ=             -0.0003  XZZ=              0.0000  YZZ=              0.0000
  YYZ=             -0.0005  XYZ=             -0.0004
 Hexadecapole moment (field-independent basis, Debye-Ang**3):
 XXXX=           -303.4901 YYYY=            -53.9323 ZZZZ=            -35.4768 XXXY=             -7.2291
 XXXZ=              0.0000 YYYX=             -3.2125 YYYZ=              0.0000 ZZZX=              0.0000
 ZZZY=              0.0000 XXYY=            -58.6907 XXZZ=            -60.3758 YYZZ=            -14.3795
 XXYZ=              0.0000 YYXZ=              0.0000 ZZXY=              1.6680
 N-N= 1.361248919430D+02 E-N=-8.117932543521D+02  KE= 2.288264610491D+02
 1\1\GINC-C0700A-S1\Scan\RHF\CC-pVDZ\C2H6O2\LE.CHEN\07-Oct-2021\0\\# op
 t=(modredundant,maxcyc=500) hf/cc-pvdz geom=connectivity\\Title\\0,1\C
 ,1.6510264617,-0.5026423285,0.0000940641\O,0.5781612835,0.3900416016,0
 .0003690729\H,2.5469063677,0.1156749286,0.0001482335\H,1.6342013969,-1
 .1310045154,-0.8919718846\H,1.6343638091,-1.1314010122,0.8918831509\O,
 -0.5781612835,-0.3900416008,0.0003696595\C,-1.6510264617,0.5026423286,
 0.0000926728\H,-1.6343640504,1.1314026982,0.8918805749\H,-2.5469063676
 ,-0.1156749285,0.0001477686\H,-1.6342011558,1.1310028292,-0.8919744598
 \\Version=AS64L-G09RevD.01\State=1-A\HF=-228.8470273,-228.8470263,-228
 .8470238,-228.8470201,-228.8470158,-228.8470114,-228.8470071,-228.8470
 025,-228.8469961,-228.8469845,-228.8469617,-228.8469182,-228.8468399,-
 228.8467065,-228.8464912,-228.8461615,-228.8456838,-228.8450344,-228.8
 442183,-228.8432812,-228.8422806,-228.8412384,-228.8401403,-228.838963
 2,-228.8376946,-228.8363384,-228.8349145,-228.8334543,-228.8319952,-22
 8.8305769,-228.8292382,-228.8280157,-228.8269434,-228.8260537,-228.825
 3789,-228.8249525,-228.8248063,-228.8249552,-228.8253841,-228.8260611,
 -228.8269527,-228.8280266,-228.8292504,-228.83059,-228.8320088,-228.83
 34681,-228.8349282,-228.8363516,-228.837707,-228.8389748,-228.8401511,
 -228.8412486,-228.8422903,-228.8432904,-228.8442267,-228.8450414,-228.
 8456891,-228.8461653,-228.8464937,-228.8467081,-228.8468409,-228.84691
 88,-228.846962,-228.8469846,-228.8469962,-228.8470026,-228.8470071,-22
 8.8470114,-228.8470158,-228.8470202,-228.8470239,-228.8470264,-228.847
 0273\RMSD=1.936e-09,7.553e-09,6.953e-09,4.112e-09,4.892e-09,5.075e-09,
 4.747e-09,3.975e-09,3.042e-09,2.854e-09,3.676e-09,4.622e-09,5.280e-09,
 5.465e-09,5.193e-09,6.676e-09,2.440e-09,3.916e-09,5.409e-09,7.378e-09,
 3.397e-09,7.460e-09,9.462e-09,5.081e-09,7.550e-09,5.755e-09,5.970e-09,
 7.658e-09,6.043e-09,9.112e-09,5.654e-09,4.056e-09,3.670e-09,6.151e-09,
 6.688e-09,9.611e-09,7.129e-09,8.490e-09,2.020e-09,2.314e-09,9.739e-09,
 8.515e-09,1.605e-09,2.053e-09,3.064e-09,4.510e-09,5.576e-09,6.487e-09,
 5.172e-09,3.619e-09,3.676e-09,1.635e-09,9.839e-09,8.580e-09,5.936e-09,
 4.042e-09,6.007e-09,2.367e-09,6.428e-09,5.246e-09,5.452e-09,5.043e-09,
 4.242e-09,3.352e-09,2.953e-09,3.491e-09,4.386e-09,5.102e-09,5.421e-09,
 5.189e-09,4.416e-09,3.345e-09,9.124e-09\PG=C01 [X(C2H6O2)]\\@


 IT IS BY EATING THE LIGHT OF A STAR THAT WE EXIST, 
 IN THE FINAL ANALYSIS, 
 JUST AS IT IS BY PERCEIVING THE LIGHT OF STARS
 THAT WE DEFINE THE WORLD AROUND US.

                                    -- GILBERT GROSVENOR
 Job cpu time:       0 days  0 hours  6 minutes 40.2 seconds.
 File lengths (MBytes):  RWF=     10 Int=      0 D2E=      0 Chk=      6 Scr=      1
 Normal termination of Gaussian 09 at Thu Oct  7 14:30:43 2021.
