 Entering Gaussian System, Link 0=g09
 Initial command:
 /apps/gaussian/g09/amd-sse4a/l1.exe "/blue/chm6586/le.chen/hw3/q2/Gau-73528.inp" -scrdir="/blue/chm6586/le.chen/hw3/q2/"
 Entering Link 1 = /apps/gaussian/g09/amd-sse4a/l1.exe PID=     73529.
  
 Copyright (c) 1988,1990,1992,1993,1995,1998,2003,2009,2013,
            Gaussian, Inc.  All Rights Reserved.
  
 This is part of the Gaussian(R) 09 program.  It is based on
 the Gaussian(R) 03 system (copyright 2003, Gaussian, Inc.),
 the Gaussian(R) 98 system (copyright 1998, Gaussian, Inc.),
 the Gaussian(R) 94 system (copyright 1995, Gaussian, Inc.),
 the Gaussian 92(TM) system (copyright 1992, Gaussian, Inc.),
 the Gaussian 90(TM) system (copyright 1990, Gaussian, Inc.),
 the Gaussian 88(TM) system (copyright 1988, Gaussian, Inc.),
 the Gaussian 86(TM) system (copyright 1986, Carnegie Mellon
 University), and the Gaussian 82(TM) system (copyright 1983,
 Carnegie Mellon University). Gaussian is a federally registered
 trademark of Gaussian, Inc.
  
 This software contains proprietary and confidential information,
 including trade secrets, belonging to Gaussian, Inc.
  
 This software is provided under written license and may be
 used, copied, transmitted, or stored only in accord with that
 written license.
  
 The following legend is applicable only to US Government
 contracts under FAR:
  
                    RESTRICTED RIGHTS LEGEND
  
 Use, reproduction and disclosure by the US Government is
 subject to restrictions as set forth in subparagraphs (a)
 and (c) of the Commercial Computer Software - Restricted
 Rights clause in FAR 52.227-19.
  
 Gaussian, Inc.
 340 Quinnipiac St., Bldg. 40, Wallingford CT 06492
  
  
 ---------------------------------------------------------------
 Warning -- This program may not be used in any manner that
 competes with the business of Gaussian, Inc. or will provide
 assistance to any competitor of Gaussian, Inc.  The licensee
 of this program is prohibited from giving any competitor of
 Gaussian, Inc. access to this program.  By using this program,
 the user acknowledges that Gaussian, Inc. is engaged in the
 business of creating and licensing software in the field of
 computational chemistry and represents and warrants to the
 licensee that it is not a competitor of Gaussian, Inc. and that
 it will not use this program in any manner prohibited above.
 ---------------------------------------------------------------
  

 Cite this work as:
 Gaussian 09, Revision D.01,
 M. J. Frisch, G. W. Trucks, H. B. Schlegel, G. E. Scuseria, 
 M. A. Robb, J. R. Cheeseman, G. Scalmani, V. Barone, B. Mennucci, 
 G. A. Petersson, H. Nakatsuji, M. Caricato, X. Li, H. P. Hratchian, 
 A. F. Izmaylov, J. Bloino, G. Zheng, J. L. Sonnenberg, M. Hada, 
 M. Ehara, K. Toyota, R. Fukuda, J. Hasegawa, M. Ishida, T. Nakajima, 
 Y. Honda, O. Kitao, H. Nakai, T. Vreven, J. A. Montgomery, Jr., 
 J. E. Peralta, F. Ogliaro, M. Bearpark, J. J. Heyd, E. Brothers, 
 K. N. Kudin, V. N. Staroverov, T. Keith, R. Kobayashi, J. Normand, 
 K. Raghavachari, A. Rendell, J. C. Burant, S. S. Iyengar, J. Tomasi, 
 M. Cossi, N. Rega, J. M. Millam, M. Klene, J. E. Knox, J. B. Cross, 
 V. Bakken, C. Adamo, J. Jaramillo, R. Gomperts, R. E. Stratmann, 
 O. Yazyev, A. J. Austin, R. Cammi, C. Pomelli, J. W. Ochterski, 
 R. L. Martin, K. Morokuma, V. G. Zakrzewski, G. A. Voth, 
 P. Salvador, J. J. Dannenberg, S. Dapprich, A. D. Daniels, 
 O. Farkas, J. B. Foresman, J. V. Ortiz, J. Cioslowski, 
 and D. J. Fox, Gaussian, Inc., Wallingford CT, 2013.
 
 ******************************************
 Gaussian 09:  AS64L-G09RevD.01 24-Apr-2013
                 7-Oct-2021 
 ******************************************
 ---------------------------------
 #P hf/cc-pvdz Opt=z-matrix nosymm
 ---------------------------------
 1/10=7,18=40,38=1/1,3;
 2/12=2,15=1,17=6,18=5,29=3,40=1/2;
 3/5=16,11=9,16=1,25=1,30=1,71=1/1,2,3;
 4//1;
 5/5=2,38=5/2;
 6/7=2,8=2,9=2,10=2,28=1/1;
 7/29=1,30=1/1,2,3,16;
 1/10=7,18=40/3(2);
 2/15=1,29=3/2;
 99//99;
 2/15=1,29=3/2;
 3/5=16,11=9,16=1,25=1,30=1,71=1/1,2,3;
 4/5=5,16=3,69=1/1;
 5/5=2,38=5/2;
 7/30=1/1,2,3,16;
 1/18=40/3(-5);
 2/15=1,29=3/2;
 6/7=2,8=2,9=2,10=2,19=2,28=1/1;
 99/9=1/99;
 Leave Link    1 at Thu Oct  7 01:18:19 2021, MaxMem=           0 cpu:         0.0
 (Enter /apps/gaussian/g09/amd-sse4a/l101.exe)
 -----
 Title
 -----
 Symbolic Z-matrix:
 Charge =  0 Multiplicity = 1
 O
 O                    1     1.45331 
 H                    1     0.97616  2     96.57214 
 H                    2     0.97616  1     96.57214  3     180.     0
 
 NAtoms=      4 NQM=        4 NQMF=       0 NMMI=      0 NMMIF=      0
                NMic=       0 NMicF=      0.
                    Isotopes and Nuclear Properties:
 (Nuclear quadrupole moments (NQMom) in fm**2, nuclear magnetic moments (NMagM)
  in nuclear magnetons)

  Atom         1           2           3           4
 IAtWgt=          16          16           1           1
 AtmWgt=  15.9949146  15.9949146   1.0078250   1.0078250
 NucSpn=           0           0           1           1
 AtZEff=   0.0000000   0.0000000   0.0000000   0.0000000
 NQMom=    0.0000000   0.0000000   0.0000000   0.0000000
 NMagM=    0.0000000   0.0000000   2.7928460   2.7928460
 AtZNuc=   8.0000000   8.0000000   1.0000000   1.0000000
 Leave Link  101 at Thu Oct  7 01:18:19 2021, MaxMem=    33554432 cpu:         0.1
 (Enter /apps/gaussian/g09/amd-sse4a/l103.exe)

 GradGradGradGradGradGradGradGradGradGradGradGradGradGradGradGradGradGrad
 Berny optimization.
 Initialization pass.
 No Z-matrix variables, so optimization will use Cartesian coordinates.
 Trust Radius=3.00D-01 FncErr=1.00D-07 GrdErr=1.00D-07
 Number of steps in this run=     22 maximum allowed number of steps=    100.
 GradGradGradGradGradGradGradGradGradGradGradGradGradGradGradGradGradGrad

 Leave Link  103 at Thu Oct  7 01:18:19 2021, MaxMem=    33554432 cpu:         0.0
 (Enter /apps/gaussian/g09/amd-sse4a/l202.exe)
 ---------------------------------------------------------------------------------------------------
                            Z-MATRIX (ANGSTROMS AND DEGREES)
   CD    Cent   Atom    N1       Length/X        N2       Alpha/Y        N3        Beta/Z          J
 ---------------------------------------------------------------------------------------------------
      1      1  O 
      2      2  O        1   1.453310(     1)
      3      3  H        1   0.976160(     2)      2   96.572(     4)
      4      4  H        2   0.976160(     3)      1   96.572(     5)      3  180.000(     6)      0
 ---------------------------------------------------------------------------------------------------
                         Z-Matrix orientation:                         
 ---------------------------------------------------------------------
 Center     Atomic      Atomic             Coordinates (Angstroms)
 Number     Number       Type             X           Y           Z
 ---------------------------------------------------------------------
      1          8           0        0.000000    0.000000    0.000000
      2          8           0        0.000000    0.000000    1.453310
      3          1           0        0.969745    0.000000   -0.111726
      4          1           0       -0.969745    0.000000    1.565036
 ---------------------------------------------------------------------
                    Distance matrix (angstroms):
                    1          2          3          4
     1  O    0.000000
     2  O    1.453310   0.000000
     3  H    0.976160   1.841125   0.000000
     4  H    1.841125   0.976160   2.563816   0.000000
 Symmetry turned off by external request.
 Stoichiometry    H2O2
 Framework group  C2H[SGH(H2O2)]
 Deg. of freedom     3
 Full point group                 C2H     NOp   4
 Rotational constants (GHZ):    291.5360184     27.3617142     25.0140544
 Leave Link  202 at Thu Oct  7 01:18:19 2021, MaxMem=    33554432 cpu:         0.0
 (Enter /apps/gaussian/g09/amd-sse4a/l301.exe)
 Standard basis: CC-pVDZ (5D, 7F)
 Ernie: Thresh=  0.10000D-02 Tol=  0.10000D-05 Strict=F.
 Ernie:  4 primitive shells out of 54 were deleted.
    38 basis functions,    80 primitive gaussians,    40 cartesian basis functions
     9 alpha electrons        9 beta electrons
       nuclear repulsion energy        36.7823359352 Hartrees.
 IExCor=    0 DFT=F Ex=HF Corr=None ExCW=0 ScaHFX=  1.000000
 ScaDFX=  1.000000  1.000000  1.000000  1.000000 ScalE2=  1.000000  1.000000
 IRadAn=      0 IRanWt=     -1 IRanGd=            0 ICorTp=0 IEmpDi=  4
 NAtoms=    4 NActive=    4 NUniq=    4 SFac= 1.00D+00 NAtFMM=   60 NAOKFM=F Big=F
 Integral buffers will be    131072 words long.
 Raffenetti 1 integral format.
 Two-electron integral symmetry is turned off.
 Leave Link  301 at Thu Oct  7 01:18:19 2021, MaxMem=    33554432 cpu:         0.0
 (Enter /apps/gaussian/g09/amd-sse4a/l302.exe)
 NPDir=0 NMtPBC=     1 NCelOv=     1 NCel=       1 NClECP=     1 NCelD=      1
         NCelK=      1 NCelE2=     1 NClLst=     1 CellRange=     0.0.
 One-electron integrals computed using PRISM.
 NBasis=    38 RedAO= T EigKep=  2.43D-02  NBF=    38
 NBsUse=    38 1.00D-06 EigRej= -1.00D+00 NBFU=    38
 Leave Link  302 at Thu Oct  7 01:18:19 2021, MaxMem=    33554432 cpu:         0.1
 (Enter /apps/gaussian/g09/amd-sse4a/l303.exe)
 DipDrv:  MaxL=1.
 Leave Link  303 at Thu Oct  7 01:18:19 2021, MaxMem=    33554432 cpu:         0.0
 (Enter /apps/gaussian/g09/amd-sse4a/l401.exe)
 ExpMin= 1.22D-01 ExpMax= 1.17D+04 ExpMxC= 4.01D+02 IAcc=1 IRadAn=         1 AccDes= 0.00D+00
 Harris functional with IExCor=  205 and IRadAn=       1 diagonalized for initial guess.
 HarFok:  IExCor=  205 AccDes= 0.00D+00 IRadAn=         1 IDoV= 1 UseB2=F ITyADJ=14
 ICtDFT=  3500011 ScaDFX=  1.000000  1.000000  1.000000  1.000000
 FoFCou: FMM=F IPFlag=           0 FMFlag=      100000 FMFlg1=           0
         NFxFlg=           0 DoJE=T BraDBF=F KetDBF=T FulRan=T
         wScrn=  0.000000 ICntrl=     500 IOpCl=  0 I1Cent=   200000004 NGrid=           0
         NMat0=    1 NMatS0=      1 NMatT0=    0 NMatD0=    1 NMtDS0=    0 NMtDT0=    0
 Symmetry not used in FoFCou.
 Harris En= -150.869095262199    
 JPrj=0 DoOrth=F DoCkMO=F.
 Leave Link  401 at Thu Oct  7 01:18:19 2021, MaxMem=    33554432 cpu:         0.1
 (Enter /apps/gaussian/g09/amd-sse4a/l502.exe)
 Closed shell SCF:
 Using DIIS extrapolation, IDIIS=  1040.
 Two-electron integral symmetry not used.
 Keep R1 ints in memory in canonical form, NReq=1140893.
 IVT=       23838 IEndB=       23838 NGot=    33554432 MDV=    33255684
 LenX=    33255684 LenY=    33253643
 Requested convergence on RMS density matrix=1.00D-08 within 128 cycles.
 Requested convergence on MAX density matrix=1.00D-06.
 Requested convergence on             energy=1.00D-06.
 No special actions if energy rises.
 FoFCou: FMM=F IPFlag=           0 FMFlag=           0 FMFlg1=           0
         NFxFlg=           0 DoJE=F BraDBF=F KetDBF=F FulRan=T
         wScrn=  0.000000 ICntrl=     600 IOpCl=  0 I1Cent=           0 NGrid=           0
         NMat0=    1 NMatS0=    741 NMatT0=    0 NMatD0=    1 NMtDS0=    0 NMtDT0=    0
 Symmetry not used in FoFCou.

 Cycle   1  Pass 1  IDiag  1:
 E= -150.735492337667    
 DIIS: error= 4.08D-02 at cycle   1 NSaved=   1.
 NSaved= 1 IEnMin= 1 EnMin= -150.735492337667     IErMin= 1 ErrMin= 4.08D-02
 ErrMax= 4.08D-02  0.00D+00 EMaxC= 1.00D-01 BMatC= 8.67D-02 BMatP= 8.67D-02
 IDIUse=3 WtCom= 5.92D-01 WtEn= 4.08D-01
 Coeff-Com:  0.100D+01
 Coeff-En:   0.100D+01
 Coeff:      0.100D+01
 Gap=     0.726 Goal=   None    Shift=    0.000
 GapD=    0.726 DampG=2.000 DampE=0.500 DampFc=1.0000 IDamp=-1.
 RMSDP=5.15D-03 MaxDP=6.17D-02              OVMax= 6.87D-02

 Cycle   2  Pass 1  IDiag  1:
 E= -150.774947895409     Delta-E=       -0.039455557741 Rises=F Damp=F
 DIIS: error= 1.36D-02 at cycle   2 NSaved=   2.
 NSaved= 2 IEnMin= 2 EnMin= -150.774947895409     IErMin= 2 ErrMin= 1.36D-02
 ErrMax= 1.36D-02  0.00D+00 EMaxC= 1.00D-01 BMatC= 9.48D-03 BMatP= 8.67D-02
 IDIUse=3 WtCom= 8.64D-01 WtEn= 1.36D-01
 Coeff-Com:  0.181D+00 0.819D+00
 Coeff-En:   0.000D+00 0.100D+01
 Coeff:      0.157D+00 0.843D+00
 Gap=     0.648 Goal=   None    Shift=    0.000
 RMSDP=1.93D-03 MaxDP=2.29D-02 DE=-3.95D-02 OVMax= 1.87D-02

 Cycle   3  Pass 1  IDiag  1:
 E= -150.780978789962     Delta-E=       -0.006030894554 Rises=F Damp=F
 DIIS: error= 3.49D-03 at cycle   3 NSaved=   3.
 NSaved= 3 IEnMin= 3 EnMin= -150.780978789962     IErMin= 3 ErrMin= 3.49D-03
 ErrMax= 3.49D-03  0.00D+00 EMaxC= 1.00D-01 BMatC= 5.14D-04 BMatP= 9.48D-03
 IDIUse=3 WtCom= 9.65D-01 WtEn= 3.49D-02
 Coeff-Com: -0.193D-01 0.150D+00 0.869D+00
 Coeff-En:   0.000D+00 0.000D+00 0.100D+01
 Coeff:     -0.186D-01 0.145D+00 0.874D+00
 Gap=     0.636 Goal=   None    Shift=    0.000
 RMSDP=3.79D-04 MaxDP=4.86D-03 DE=-6.03D-03 OVMax= 6.22D-03

 Cycle   4  Pass 1  IDiag  1:
 E= -150.781389283976     Delta-E=       -0.000410494013 Rises=F Damp=F
 DIIS: error= 4.41D-04 at cycle   4 NSaved=   4.
 NSaved= 4 IEnMin= 4 EnMin= -150.781389283976     IErMin= 4 ErrMin= 4.41D-04
 ErrMax= 4.41D-04  0.00D+00 EMaxC= 1.00D-01 BMatC= 8.15D-06 BMatP= 5.14D-04
 IDIUse=3 WtCom= 9.96D-01 WtEn= 4.41D-03
 Coeff-Com: -0.150D-02-0.307D-01-0.587D-01 0.109D+01
 Coeff-En:   0.000D+00 0.000D+00 0.000D+00 0.100D+01
 Coeff:     -0.149D-02-0.306D-01-0.584D-01 0.109D+01
 Gap=     0.637 Goal=   None    Shift=    0.000
 RMSDP=7.58D-05 MaxDP=7.89D-04 DE=-4.10D-04 OVMax= 1.28D-03

 Cycle   5  Pass 1  IDiag  1:
 E= -150.781401230616     Delta-E=       -0.000011946640 Rises=F Damp=F
 DIIS: error= 1.18D-04 at cycle   5 NSaved=   5.
 NSaved= 5 IEnMin= 5 EnMin= -150.781401230616     IErMin= 5 ErrMin= 1.18D-04
 ErrMax= 1.18D-04  0.00D+00 EMaxC= 1.00D-01 BMatC= 5.05D-07 BMatP= 8.15D-06
 IDIUse=3 WtCom= 9.99D-01 WtEn= 1.18D-03
 Coeff-Com:  0.127D-02-0.500D-02-0.381D-01-0.161D+00 0.120D+01
 Coeff-En:   0.000D+00 0.000D+00 0.000D+00 0.000D+00 0.100D+01
 Coeff:      0.127D-02-0.500D-02-0.380D-01-0.160D+00 0.120D+01
 Gap=     0.638 Goal=   None    Shift=    0.000
 RMSDP=2.98D-05 MaxDP=2.47D-04 DE=-1.19D-05 OVMax= 5.49D-04

 Cycle   6  Pass 1  IDiag  1:
 E= -150.781402415136     Delta-E=       -0.000001184520 Rises=F Damp=F
 DIIS: error= 2.09D-05 at cycle   6 NSaved=   6.
 NSaved= 6 IEnMin= 6 EnMin= -150.781402415136     IErMin= 6 ErrMin= 2.09D-05
 ErrMax= 2.09D-05  0.00D+00 EMaxC= 1.00D-01 BMatC= 2.05D-08 BMatP= 5.05D-07
 IDIUse=1 WtCom= 1.00D+00 WtEn= 0.00D+00
 Coeff-Com: -0.290D-03 0.227D-02 0.142D-01 0.734D-02-0.382D+00 0.136D+01
 Coeff:     -0.290D-03 0.227D-02 0.142D-01 0.734D-02-0.382D+00 0.136D+01
 Gap=     0.638 Goal=   None    Shift=    0.000
 RMSDP=7.88D-06 MaxDP=6.22D-05 DE=-1.18D-06 OVMax= 1.17D-04

 Cycle   7  Pass 1  IDiag  1:
 E= -150.781402468263     Delta-E=       -0.000000053127 Rises=F Damp=F
 DIIS: error= 3.61D-06 at cycle   7 NSaved=   7.
 NSaved= 7 IEnMin= 7 EnMin= -150.781402468263     IErMin= 7 ErrMin= 3.61D-06
 ErrMax= 3.61D-06  0.00D+00 EMaxC= 1.00D-01 BMatC= 3.27D-10 BMatP= 2.05D-08
 IDIUse=1 WtCom= 1.00D+00 WtEn= 0.00D+00
 Coeff-Com:  0.685D-04-0.566D-03-0.358D-02-0.320D-02 0.109D+00-0.426D+00
 Coeff-Com:  0.132D+01
 Coeff:      0.685D-04-0.566D-03-0.358D-02-0.320D-02 0.109D+00-0.426D+00
 Coeff:      0.132D+01
 Gap=     0.638 Goal=   None    Shift=    0.000
 RMSDP=7.95D-07 MaxDP=4.34D-06 DE=-5.31D-08 OVMax= 1.85D-05

 Cycle   8  Pass 1  IDiag  1:
 E= -150.781402469104     Delta-E=       -0.000000000841 Rises=F Damp=F
 DIIS: error= 7.72D-07 at cycle   8 NSaved=   8.
 NSaved= 8 IEnMin= 8 EnMin= -150.781402469104     IErMin= 8 ErrMin= 7.72D-07
 ErrMax= 7.72D-07  0.00D+00 EMaxC= 1.00D-01 BMatC= 1.80D-11 BMatP= 3.27D-10
 IDIUse=1 WtCom= 1.00D+00 WtEn= 0.00D+00
 Coeff-Com:  0.193D-06 0.169D-04 0.487D-04-0.458D-03-0.940D-04 0.145D-01
 Coeff-Com: -0.303D+00 0.129D+01
 Coeff:      0.193D-06 0.169D-04 0.487D-04-0.458D-03-0.940D-04 0.145D-01
 Coeff:     -0.303D+00 0.129D+01
 Gap=     0.638 Goal=   None    Shift=    0.000
 RMSDP=1.93D-07 MaxDP=1.08D-06 DE=-8.41D-10 OVMax= 5.13D-06

 Cycle   9  Pass 1  IDiag  1:
 E= -150.781402469151     Delta-E=       -0.000000000047 Rises=F Damp=F
 DIIS: error= 8.62D-08 at cycle   9 NSaved=   9.
 NSaved= 9 IEnMin= 9 EnMin= -150.781402469151     IErMin= 9 ErrMin= 8.62D-08
 ErrMax= 8.62D-08  0.00D+00 EMaxC= 1.00D-01 BMatC= 4.07D-13 BMatP= 1.80D-11
 IDIUse=1 WtCom= 1.00D+00 WtEn= 0.00D+00
 Coeff-Com: -0.228D-05 0.158D-04 0.104D-03 0.184D-03-0.335D-02 0.936D-02
 Coeff-Com:  0.435D-01-0.348D+00 0.130D+01
 Coeff:     -0.228D-05 0.158D-04 0.104D-03 0.184D-03-0.335D-02 0.936D-02
 Coeff:      0.435D-01-0.348D+00 0.130D+01
 Gap=     0.638 Goal=   None    Shift=    0.000
 RMSDP=2.86D-08 MaxDP=2.11D-07 DE=-4.68D-11 OVMax= 7.08D-07

 Cycle  10  Pass 1  IDiag  1:
 E= -150.781402469152     Delta-E=       -0.000000000001 Rises=F Damp=F
 DIIS: error= 2.43D-08 at cycle  10 NSaved=  10.
 NSaved=10 IEnMin=10 EnMin= -150.781402469152     IErMin=10 ErrMin= 2.43D-08
 ErrMax= 2.43D-08  0.00D+00 EMaxC= 1.00D-01 BMatC= 1.73D-14 BMatP= 4.07D-13
 IDIUse=1 WtCom= 1.00D+00 WtEn= 0.00D+00
 Coeff-Com:  0.986D-06-0.741D-05-0.474D-04-0.518D-04 0.141D-02-0.441D-02
 Coeff-Com: -0.111D-01 0.117D+00-0.575D+00 0.147D+01
 Coeff:      0.986D-06-0.741D-05-0.474D-04-0.518D-04 0.141D-02-0.441D-02
 Coeff:     -0.111D-01 0.117D+00-0.575D+00 0.147D+01
 Gap=     0.638 Goal=   None    Shift=    0.000
 RMSDP=6.64D-09 MaxDP=5.18D-08 DE=-5.12D-13 OVMax= 1.33D-07

 SCF Done:  E(RHF) =  -150.781402469     A.U. after   10 cycles
            NFock= 10  Conv=0.66D-08     -V/T= 2.0010
 KE= 1.506350697219D+02 PE=-4.319714781769D+02 EE= 9.377267005064D+01
 Leave Link  502 at Thu Oct  7 01:18:19 2021, MaxMem=    33554432 cpu:         0.1
 (Enter /apps/gaussian/g09/amd-sse4a/l601.exe)
 Copying SCF densities to generalized density rwf, IOpCl= 0 IROHF=0.

 **********************************************************************

            Population analysis using the SCF density.

 **********************************************************************

 Alpha  occ. eigenvalues --  -20.62275 -20.62247  -1.46707  -1.20183  -0.72304
 Alpha  occ. eigenvalues --   -0.64900  -0.61949  -0.54007  -0.44981
 Alpha virt. eigenvalues --    0.18807   0.19601   0.29905   0.80821   0.81047
 Alpha virt. eigenvalues --    1.09154   1.11445   1.14323   1.24494   1.25762
 Alpha virt. eigenvalues --    1.35851   1.52041   1.56274   1.56919   1.74759
 Alpha virt. eigenvalues --    1.93042   2.08591   2.37010   2.43477   2.62513
 Alpha virt. eigenvalues --    2.73953   3.00828   3.22059   3.29584   3.36720
 Alpha virt. eigenvalues --    3.55518   3.90210   3.90835   4.25535
          Condensed to atoms (all electrons):
               1          2          3          4
     1  O    7.775419   0.112894   0.351962  -0.027721
     2  O    0.112894   7.775419  -0.027721   0.351962
     3  H    0.351962  -0.027721   0.460769   0.002435
     4  H   -0.027721   0.351962   0.002435   0.460769
 Mulliken charges:
               1
     1  O   -0.212554
     2  O   -0.212554
     3  H    0.212554
     4  H    0.212554
 Sum of Mulliken charges =   0.00000
 Mulliken charges with hydrogens summed into heavy atoms:
               1
     1  O    0.000000
     2  O    0.000000
 Electronic spatial extent (au):  <R**2>=             99.3205
 Charge=              0.0000 electrons
 Dipole moment (field-independent basis, Debye):
    X=              0.0000    Y=              0.0000    Z=              0.0000  Tot=              0.0000
 Quadrupole moment (field-independent basis, Debye-Ang):
   XX=             -7.5819   YY=            -12.4560   ZZ=            -11.5338
   XY=              0.0000   XZ=             -3.4511   YZ=              0.0000
 Traceless Quadrupole moment (field-independent basis, Debye-Ang):
   XX=              2.9420   YY=             -1.9321   ZZ=             -1.0099
   XY=              0.0000   XZ=             -3.4511   YZ=              0.0000
 Octapole moment (field-independent basis, Debye-Ang**2):
  XXX=              0.0000  YYY=              0.0000  ZZZ=            -25.1433  XYY=              0.0000
  XXY=              0.0000  XXZ=             -5.5094  XZZ=             -5.0155  YZZ=              0.0000
  YYZ=             -9.0512  XYZ=              0.0000
 Hexadecapole moment (field-independent basis, Debye-Ang**3):
 XXXX=             -7.2298 YYYY=             -8.5118 ZZZZ=            -79.7381 XXXY=              0.0000
 XXXZ=             -1.6357 YYYX=              0.0000 YYYZ=              0.0000 ZZZX=             -6.3523
 ZZZY=              0.0000 XXYY=             -3.4432 XXZZ=            -10.9921 YYZZ=            -16.3068
 XXYZ=              0.0000 YYXZ=              0.6234 ZZXY=              0.0000
 N-N= 3.678233593521D+01 E-N=-4.319714780999D+02  KE= 1.506350697219D+02
 No NMR shielding tensors so no spin-rotation constants.
 Leave Link  601 at Thu Oct  7 01:18:19 2021, MaxMem=    33554432 cpu:         0.1
 (Enter /apps/gaussian/g09/amd-sse4a/l701.exe)
 Compute integral first derivatives.
 ... and contract with generalized density number  0.
 Leave Link  701 at Thu Oct  7 01:18:20 2021, MaxMem=    33554432 cpu:         0.1
 (Enter /apps/gaussian/g09/amd-sse4a/l702.exe)
 L702 exits ... SP integral derivatives will be done elsewhere.
 Leave Link  702 at Thu Oct  7 01:18:20 2021, MaxMem=    33554432 cpu:         0.0
 (Enter /apps/gaussian/g09/amd-sse4a/l703.exe)
 Compute integral first derivatives, UseDBF=F ICtDFT=           0.
 Integral derivatives from FoFJK, PRISM(SPDF).
 Calling FoFJK, ICntrl=      2127 FMM=F ISym2X=0 I1Cent= 0 IOpClX= 0 NMat=1 NMatS=1 NMatT=0.
 FoFJK:  IHMeth= 1 ICntrl=    2127 DoSepK=F KAlg= 0 I1Cent=   0 FoldK=F
 IRaf=         0 NMat=   1 IRICut=       1 DoRegI=T DoRafI=F ISym2E= 0.
 FoFCou: FMM=F IPFlag=           0 FMFlag=      100000 FMFlg1=         800
         NFxFlg=           0 DoJE=F BraDBF=F KetDBF=F FulRan=T
         wScrn=  0.000000 ICntrl=    2127 IOpCl=  0 I1Cent=           0 NGrid=           0
         NMat0=    1 NMatS0=      1 NMatT0=    0 NMatD0=    1 NMtDS0=    0 NMtDT0=    0
 Symmetry not used in FoFCou.
 Leave Link  703 at Thu Oct  7 01:18:20 2021, MaxMem=    33554432 cpu:         0.1
 (Enter /apps/gaussian/g09/amd-sse4a/l716.exe)
 Dipole        = 2.26485497D-14-4.68022547D-16 1.01252340D-13
 -------------------------------------------------------------------
 Center     Atomic                   Forces (Hartrees/Bohr)
 Number     Number              X              Y              Z
 -------------------------------------------------------------------
      1        8           0.040814630    0.000000000    0.029226491
      2        8          -0.040814630    0.000000000   -0.029226491
      3        1          -0.030192984    0.000000000   -0.004480502
      4        1           0.030192984    0.000000000    0.004480502
 -------------------------------------------------------------------
 Cartesian Forces:  Max     0.040814630 RMS     0.023985110
 -----------------------------------------------------------------------------------------------
                       Internal Coordinate Forces (Hartree/Bohr or radian)
  Cent   Atom   N1       Length/X         N2         Alpha/Y        N3         Beta/Z          J
 -----------------------------------------------------------------------------------------------
      1  O 
      2  O        1  -0.024746(     1)
      3  H        1  -0.029482(     2)      2   0.014585(     4)
      4  H        2  -0.029482(     3)      1   0.014585(     5)      3   0.000000(     6)     0
 -----------------------------------------------------------------------------------------------
 Internal  Forces:  Max     0.029481760 RMS     0.021510390
 Force constants in Cartesian coordinates: 
                1             2             3             4             5 
      1  0.564820D+00
      2  0.000000D+00  0.175572D-02
      3 -0.225608D-01  0.000000D+00  0.431380D+00
      4 -0.496558D-01  0.000000D+00 -0.313747D-01  0.564820D+00
      5  0.000000D+00  0.175572D-02  0.000000D+00  0.000000D+00  0.175572D-02
      6 -0.313747D-01  0.000000D+00 -0.378146D+00 -0.225608D-01  0.000000D+00
      7 -0.518779D+00  0.000000D+00  0.539355D-01  0.361472D-02  0.000000D+00
      8  0.000000D+00 -0.175572D-02  0.000000D+00  0.000000D+00 -0.175572D-02
      9  0.225608D-01  0.000000D+00 -0.532337D-01  0.313747D-01  0.000000D+00
     10  0.361472D-02  0.000000D+00  0.000000D+00 -0.518779D+00  0.000000D+00
     11  0.000000D+00 -0.175572D-02  0.000000D+00  0.000000D+00 -0.175572D-02
     12  0.313747D-01  0.000000D+00  0.000000D+00  0.225608D-01  0.000000D+00
                6             7             8             9            10 
      6  0.431380D+00
      7  0.000000D+00  0.515165D+00
      8  0.000000D+00  0.000000D+00  0.175572D-02
      9  0.000000D+00 -0.539355D-01  0.000000D+00  0.532337D-01
     10  0.539355D-01  0.000000D+00  0.000000D+00  0.000000D+00  0.515165D+00
     11  0.000000D+00  0.000000D+00  0.175572D-02  0.000000D+00  0.000000D+00
     12 -0.532337D-01  0.000000D+00  0.000000D+00  0.000000D+00 -0.539355D-01
               11            12 
     11  0.175572D-02
     12  0.000000D+00  0.532337D-01
 Force constants in internal coordinates: 
                1             2             3             4             5 
      1  0.378146D+00
      2  0.000000D+00  0.521379D+00
      3  0.000000D+00  0.000000D+00  0.521379D+00
      4  0.000000D+00  0.000000D+00  0.000000D+00  0.160000D+00
      5  0.000000D+00  0.000000D+00  0.000000D+00  0.000000D+00  0.160000D+00
      6  0.000000D+00  0.000000D+00  0.000000D+00  0.000000D+00  0.000000D+00
                6 
      6  0.589616D-02
 Leave Link  716 at Thu Oct  7 01:18:20 2021, MaxMem=    33554432 cpu:         0.0
 (Enter /apps/gaussian/g09/amd-sse4a/l103.exe)

 GradGradGradGradGradGradGradGradGradGradGradGradGradGradGradGradGradGrad
 Berny optimization.
 Search for a local minimum.
 Step number   1 out of a maximum of   22
 All quantities printed in internal units (Hartrees-Bohrs-Radians)
 Second derivative matrix not updated -- first step.
 The second derivative matrix:
                          X1        Y1        Z1        X2        Y2
           X1           0.56482
           Y1           0.00000   0.00176
           Z1          -0.02256   0.00000   0.43138
           X2          -0.04966   0.00000  -0.03137   0.56482
           Y2           0.00000   0.00176   0.00000   0.00000   0.00176
           Z2          -0.03137   0.00000  -0.37815  -0.02256   0.00000
           X3          -0.51878   0.00000   0.05394   0.00361   0.00000
           Y3           0.00000  -0.00176   0.00000   0.00000  -0.00176
           Z3           0.02256   0.00000  -0.05323   0.03137   0.00000
           X4           0.00361   0.00000   0.00000  -0.51878   0.00000
           Y4           0.00000  -0.00176   0.00000   0.00000  -0.00176
           Z4           0.03137   0.00000   0.00000   0.02256   0.00000
                          Z2        X3        Y3        Z3        X4
           Z2           0.43138
           X3           0.00000   0.51516
           Y3           0.00000   0.00000   0.00176
           Z3           0.00000  -0.05394   0.00000   0.05323
           X4           0.05394   0.00000   0.00000   0.00000   0.51516
           Y4           0.00000   0.00000   0.00176   0.00000   0.00000
           Z4          -0.05323   0.00000   0.00000   0.00000  -0.05394
                          Y4        Z4
           Y4           0.00176
           Z4           0.00000   0.05323
 ITU=  0
     Eigenvalues ---    0.00572   0.07657   0.07925   0.80304   0.84909
     Eigenvalues ---    0.92525
 RFO step:  Lambda=-7.49166381D-03 EMin= 5.71852914D-03
 Linear search not attempted -- first point.
 TrRot=  0.018393  0.000000  0.000123  0.000000 -0.013395  0.000000
 Variable       Old X    -DE/DX   Delta X   Delta X   Delta X     New X
                                 (Linear)    (Quad)   (Total)
    X1        0.00000   0.04081   0.00000   0.04142   0.05937   0.05937
    Y1        0.00000   0.00000   0.00000   0.00000   0.00000   0.00000
    Z1        0.00000   0.02923   0.00000   0.03287   0.03354   0.03354
    X2        0.00000  -0.04081   0.00000  -0.04142  -0.05937  -0.05937
    Y2        0.00000   0.00000   0.00000   0.00000   0.00000   0.00000
    Z2        2.74636  -0.02923   0.00000  -0.03287  -0.03354   2.71282
    X3        1.83255  -0.03019   0.00000  -0.02666  -0.00473   1.82782
    Y3        0.00000   0.00000   0.00000   0.00000   0.00000   0.00000
    Z3       -0.21113  -0.00448   0.00000  -0.06473  -0.04040  -0.25153
    X4       -1.83255   0.03019   0.00000   0.02666   0.00473  -1.82782
    Y4        0.00000   0.00000   0.00000   0.00000   0.00000   0.00000
    Z4        2.95749   0.00448   0.00000   0.06473   0.04040   2.99788
         Item               Value     Threshold  Converged?
 Maximum Force            0.040815     0.000450     NO 
 RMS     Force            0.023985     0.000300     NO 
 Maximum Displacement     0.059366     0.001800     NO 
 RMS     Displacement     0.032413     0.001200     NO 
 Predicted change in Energy=-3.802181D-03
 Lowest energy point so far.  Saving SCF results.
 GradGradGradGradGradGradGradGradGradGradGradGradGradGradGradGradGradGrad

 Leave Link  103 at Thu Oct  7 01:18:20 2021, MaxMem=    33554432 cpu:         0.0
 (Enter /apps/gaussian/g09/amd-sse4a/l202.exe)
                          Input orientation:                          
 ---------------------------------------------------------------------
 Center     Atomic      Atomic             Coordinates (Angstroms)
 Number     Number       Type             X           Y           Z
 ---------------------------------------------------------------------
      1          8           0        0.031415    0.000000    0.017750
      2          8           0       -0.031415    0.000000    1.435560
      3          1           0        0.967243    0.000000   -0.133102
      4          1           0       -0.967243    0.000000    1.586412
 ---------------------------------------------------------------------
                    Distance matrix (angstroms):
                    1          2          3          4
     1  O    0.000000
     2  O    1.419202   0.000000
     3  H    0.947908   1.859575   0.000000
     4  H    1.859575   0.947908   2.588235   0.000000
 Symmetry turned off by external request.
 Stoichiometry    H2O2
 Framework group  C2H[SGH(H2O2)]
 Deg. of freedom     3
 Full point group                 C2H     NOp   4
 Rotational constants (GHZ):    323.7832689     28.1975724     25.9386339
 Leave Link  202 at Thu Oct  7 01:18:20 2021, MaxMem=    33554432 cpu:         0.0
 (Enter /apps/gaussian/g09/amd-sse4a/l301.exe)
 Standard basis: CC-pVDZ (5D, 7F)
 Ernie: Thresh=  0.10000D-02 Tol=  0.10000D-05 Strict=F.
 Ernie:  4 primitive shells out of 54 were deleted.
    38 basis functions,    80 primitive gaussians,    40 cartesian basis functions
     9 alpha electrons        9 beta electrons
       nuclear repulsion energy        37.5533385235 Hartrees.
 IExCor=    0 DFT=F Ex=HF Corr=None ExCW=0 ScaHFX=  1.000000
 ScaDFX=  1.000000  1.000000  1.000000  1.000000 ScalE2=  1.000000  1.000000
 IRadAn=      0 IRanWt=     -1 IRanGd=            0 ICorTp=0 IEmpDi=  4
 NAtoms=    4 NActive=    4 NUniq=    4 SFac= 1.00D+00 NAtFMM=   60 NAOKFM=F Big=F
 Integral buffers will be    131072 words long.
 Raffenetti 1 integral format.
 Two-electron integral symmetry is turned off.
 Leave Link  301 at Thu Oct  7 01:18:20 2021, MaxMem=    33554432 cpu:         0.0
 (Enter /apps/gaussian/g09/amd-sse4a/l302.exe)
 NPDir=0 NMtPBC=     1 NCelOv=     1 NCel=       1 NClECP=     1 NCelD=      1
         NCelK=      1 NCelE2=     1 NClLst=     1 CellRange=     0.0.
 One-electron integrals computed using PRISM.
 NBasis=    38 RedAO= T EigKep=  2.28D-02  NBF=    38
 NBsUse=    38 1.00D-06 EigRej= -1.00D+00 NBFU=    38
 Leave Link  302 at Thu Oct  7 01:18:20 2021, MaxMem=    33554432 cpu:         0.1
 (Enter /apps/gaussian/g09/amd-sse4a/l303.exe)
 DipDrv:  MaxL=1.
 Leave Link  303 at Thu Oct  7 01:18:20 2021, MaxMem=    33554432 cpu:         0.0
 (Enter /apps/gaussian/g09/amd-sse4a/l401.exe)
 Initial guess from the checkpoint file:  "/blue/chm6586/le.chen/hw3/q2/Gau-73529.chk"
 B after Tr=     0.037950    0.000000    0.000524
         Rot=    0.999905    0.000000    0.013820    0.000000 Ang=   1.58 deg.
 Guess basis will be translated and rotated to current coordinates.
 JPrj=2 DoOrth=T DoCkMO=T.
 Generating alternative initial guess.
 ExpMin= 1.22D-01 ExpMax= 1.17D+04 ExpMxC= 4.01D+02 IAcc=1 IRadAn=         1 AccDes= 0.00D+00
 Harris functional with IExCor=  205 and IRadAn=       1 diagonalized for initial guess.
 HarFok:  IExCor=  205 AccDes= 0.00D+00 IRadAn=         1 IDoV= 1 UseB2=F ITyADJ=14
 ICtDFT=  3500011 ScaDFX=  1.000000  1.000000  1.000000  1.000000
 FoFCou: FMM=F IPFlag=           0 FMFlag=      100000 FMFlg1=           0
         NFxFlg=           0 DoJE=T BraDBF=F KetDBF=T FulRan=T
         wScrn=  0.000000 ICntrl=     500 IOpCl=  0 I1Cent=   200000004 NGrid=           0
         NMat0=    1 NMatS0=      1 NMatT0=    0 NMatD0=    1 NMtDS0=    0 NMtDT0=    0
 Symmetry not used in FoFCou.
 Harris En= -150.870534381308    
 Leave Link  401 at Thu Oct  7 01:18:20 2021, MaxMem=    33554432 cpu:         0.1
 (Enter /apps/gaussian/g09/amd-sse4a/l502.exe)
 Closed shell SCF:
 Using DIIS extrapolation, IDIIS=  1040.
 Two-electron integral symmetry not used.
 Keep R1 ints in memory in canonical form, NReq=1140977.
 IVT=       23838 IEndB=       23838 NGot=    33554432 MDV=    33255684
 LenX=    33255684 LenY=    33253643
 Requested convergence on RMS density matrix=1.00D-08 within 128 cycles.
 Requested convergence on MAX density matrix=1.00D-06.
 Requested convergence on             energy=1.00D-06.
 No special actions if energy rises.
 FoFCou: FMM=F IPFlag=           0 FMFlag=           0 FMFlg1=           0
         NFxFlg=           0 DoJE=F BraDBF=F KetDBF=F FulRan=T
         wScrn=  0.000000 ICntrl=     600 IOpCl=  0 I1Cent=           0 NGrid=           0
         NMat0=    1 NMatS0=    741 NMatT0=    0 NMatD0=    1 NMtDS0=    0 NMtDT0=    0
 Symmetry not used in FoFCou.

 Cycle   1  Pass 1  IDiag  1:
 E= -150.782762042229    
 DIIS: error= 6.59D-03 at cycle   1 NSaved=   1.
 NSaved= 1 IEnMin= 1 EnMin= -150.782762042229     IErMin= 1 ErrMin= 6.59D-03
 ErrMax= 6.59D-03  0.00D+00 EMaxC= 1.00D-01 BMatC= 1.89D-03 BMatP= 1.89D-03
 IDIUse=3 WtCom= 9.34D-01 WtEn= 6.59D-02
 Coeff-Com:  0.100D+01
 Coeff-En:   0.100D+01
 Coeff:      0.100D+01
 Gap=     1.266 Goal=   None    Shift=    0.000
 GapD=    1.266 DampG=2.000 DampE=1.000 DampFc=2.0000 IDamp=-1.
 RMSDP=1.15D-03 MaxDP=8.10D-03              OVMax= 1.39D-02

 Cycle   2  Pass 1  IDiag  1:
 E= -150.784856135908     Delta-E=       -0.002094093680 Rises=F Damp=F
 DIIS: error= 1.56D-03 at cycle   2 NSaved=   2.
 NSaved= 2 IEnMin= 2 EnMin= -150.784856135908     IErMin= 2 ErrMin= 1.56D-03
 ErrMax= 1.56D-03  0.00D+00 EMaxC= 1.00D-01 BMatC= 1.12D-04 BMatP= 1.89D-03
 IDIUse=3 WtCom= 9.84D-01 WtEn= 1.56D-02
 Coeff-Com: -0.151D+00 0.115D+01
 Coeff-En:   0.000D+00 0.100D+01
 Coeff:     -0.148D+00 0.115D+01
 Gap=     0.638 Goal=   None    Shift=    0.000
 RMSDP=3.32D-04 MaxDP=2.17D-03 DE=-2.09D-03 OVMax= 3.57D-03

 Cycle   3  Pass 1  IDiag  1:
 E= -150.785004741926     Delta-E=       -0.000148606018 Rises=F Damp=F
 DIIS: error= 5.47D-04 at cycle   3 NSaved=   3.
 NSaved= 3 IEnMin= 3 EnMin= -150.785004741926     IErMin= 3 ErrMin= 5.47D-04
 ErrMax= 5.47D-04  0.00D+00 EMaxC= 1.00D-01 BMatC= 1.30D-05 BMatP= 1.12D-04
 IDIUse=3 WtCom= 9.95D-01 WtEn= 5.47D-03
 Coeff-Com: -0.748D-01 0.252D+00 0.822D+00
 Coeff-En:   0.000D+00 0.000D+00 0.100D+01
 Coeff:     -0.744D-01 0.251D+00 0.823D+00
 Gap=     0.640 Goal=   None    Shift=    0.000
 RMSDP=8.25D-05 MaxDP=7.93D-04 DE=-1.49D-04 OVMax= 1.23D-03

 Cycle   4  Pass 1  IDiag  1:
 E= -150.785018532930     Delta-E=       -0.000013791004 Rises=F Damp=F
 DIIS: error= 1.28D-04 at cycle   4 NSaved=   4.
 NSaved= 4 IEnMin= 4 EnMin= -150.785018532930     IErMin= 4 ErrMin= 1.28D-04
 ErrMax= 1.28D-04  0.00D+00 EMaxC= 1.00D-01 BMatC= 6.13D-07 BMatP= 1.30D-05
 IDIUse=3 WtCom= 9.99D-01 WtEn= 1.28D-03
 Coeff-Com:  0.196D-01-0.107D+00-0.936D-01 0.118D+01
 Coeff-En:   0.000D+00 0.000D+00 0.000D+00 0.100D+01
 Coeff:      0.195D-01-0.107D+00-0.935D-01 0.118D+01
 Gap=     0.639 Goal=   None    Shift=    0.000
 RMSDP=3.37D-05 MaxDP=1.96D-04 DE=-1.38D-05 OVMax= 5.68D-04

 Cycle   5  Pass 1  IDiag  1:
 E= -150.785019952761     Delta-E=       -0.000001419832 Rises=F Damp=F
 DIIS: error= 3.41D-05 at cycle   5 NSaved=   5.
 NSaved= 5 IEnMin= 5 EnMin= -150.785019952761     IErMin= 5 ErrMin= 3.41D-05
 ErrMax= 3.41D-05  0.00D+00 EMaxC= 1.00D-01 BMatC= 3.69D-08 BMatP= 6.13D-07
 IDIUse=1 WtCom= 1.00D+00 WtEn= 0.00D+00
 Coeff-Com: -0.152D-02 0.157D-01-0.892D-02-0.342D+00 0.134D+01
 Coeff:     -0.152D-02 0.157D-01-0.892D-02-0.342D+00 0.134D+01
 Gap=     0.639 Goal=   None    Shift=    0.000
 RMSDP=1.08D-05 MaxDP=6.68D-05 DE=-1.42D-06 OVMax= 1.94D-04

 Cycle   6  Pass 1  IDiag  1:
 E= -150.785020063359     Delta-E=       -0.000000110597 Rises=F Damp=F
 DIIS: error= 7.61D-06 at cycle   6 NSaved=   6.
 NSaved= 6 IEnMin= 6 EnMin= -150.785020063359     IErMin= 6 ErrMin= 7.61D-06
 ErrMax= 7.61D-06  0.00D+00 EMaxC= 1.00D-01 BMatC= 1.40D-09 BMatP= 3.69D-08
 IDIUse=1 WtCom= 1.00D+00 WtEn= 0.00D+00
 Coeff-Com: -0.630D-03 0.187D-02 0.767D-02 0.175D-01-0.306D+00 0.128D+01
 Coeff:     -0.630D-03 0.187D-02 0.767D-02 0.175D-01-0.306D+00 0.128D+01
 Gap=     0.639 Goal=   None    Shift=    0.000
 RMSDP=1.77D-06 MaxDP=1.57D-05 DE=-1.11D-07 OVMax= 3.78D-05

 Cycle   7  Pass 1  IDiag  1:
 E= -150.785020066924     Delta-E=       -0.000000003565 Rises=F Damp=F
 DIIS: error= 1.07D-06 at cycle   7 NSaved=   7.
 NSaved= 7 IEnMin= 7 EnMin= -150.785020066924     IErMin= 7 ErrMin= 1.07D-06
 ErrMax= 1.07D-06  0.00D+00 EMaxC= 1.00D-01 BMatC= 2.21D-11 BMatP= 1.40D-09
 IDIUse=1 WtCom= 1.00D+00 WtEn= 0.00D+00
 Coeff-Com:  0.159D-03-0.645D-03-0.157D-02 0.247D-02 0.386D-01-0.268D+00
 Coeff-Com:  0.123D+01
 Coeff:      0.159D-03-0.645D-03-0.157D-02 0.247D-02 0.386D-01-0.268D+00
 Coeff:      0.123D+01
 Gap=     0.639 Goal=   None    Shift=    0.000
 RMSDP=1.69D-07 MaxDP=1.51D-06 DE=-3.57D-09 OVMax= 4.17D-06

 Cycle   8  Pass 1  IDiag  1:
 E= -150.785020066976     Delta-E=       -0.000000000052 Rises=F Damp=F
 DIIS: error= 1.78D-07 at cycle   8 NSaved=   8.
 NSaved= 8 IEnMin= 8 EnMin= -150.785020066976     IErMin= 8 ErrMin= 1.78D-07
 ErrMax= 1.78D-07  0.00D+00 EMaxC= 1.00D-01 BMatC= 9.86D-13 BMatP= 2.21D-11
 IDIUse=1 WtCom= 1.00D+00 WtEn= 0.00D+00
 Coeff-Com: -0.407D-05 0.265D-04 0.126D-05-0.255D-03 0.710D-03 0.109D-01
 Coeff-Com: -0.235D+00 0.122D+01
 Coeff:     -0.407D-05 0.265D-04 0.126D-05-0.255D-03 0.710D-03 0.109D-01
 Coeff:     -0.235D+00 0.122D+01
 Gap=     0.639 Goal=   None    Shift=    0.000
 RMSDP=4.70D-08 MaxDP=2.85D-07 DE=-5.21D-11 OVMax= 7.91D-07

 Cycle   9  Pass 1  IDiag  1:
 E= -150.785020066979     Delta-E=       -0.000000000003 Rises=F Damp=F
 DIIS: error= 3.84D-08 at cycle   9 NSaved=   9.
 NSaved= 9 IEnMin= 9 EnMin= -150.785020066979     IErMin= 9 ErrMin= 3.84D-08
 ErrMax= 3.84D-08  0.00D+00 EMaxC= 1.00D-01 BMatC= 6.35D-14 BMatP= 9.86D-13
 IDIUse=1 WtCom= 1.00D+00 WtEn= 0.00D+00
 Coeff-Com: -0.104D-04 0.400D-04 0.108D-03 0.146D-04-0.399D-02 0.211D-01
 Coeff-Com: -0.470D-01-0.200D+00 0.123D+01
 Coeff:     -0.104D-04 0.400D-04 0.108D-03 0.146D-04-0.399D-02 0.211D-01
 Coeff:     -0.470D-01-0.200D+00 0.123D+01
 Gap=     0.639 Goal=   None    Shift=    0.000
 RMSDP=1.20D-08 MaxDP=7.63D-08 DE=-2.79D-12 OVMax= 1.93D-07

 Cycle  10  Pass 1  IDiag  1:
 E= -150.785020066979     Delta-E=        0.000000000000 Rises=F Damp=F
 DIIS: error= 8.06D-09 at cycle  10 NSaved=  10.
 NSaved=10 IEnMin=10 EnMin= -150.785020066979     IErMin=10 ErrMin= 8.06D-09
 ErrMax= 8.06D-09  0.00D+00 EMaxC= 1.00D-01 BMatC= 1.88D-15 BMatP= 6.35D-14
 IDIUse=1 WtCom= 1.00D+00 WtEn= 0.00D+00
 Coeff-Com:  0.259D-05-0.102D-04-0.281D-04 0.175D-04 0.902D-03-0.524D-02
 Coeff-Com:  0.157D-01 0.333D-01-0.381D+00 0.134D+01
 Coeff:      0.259D-05-0.102D-04-0.281D-04 0.175D-04 0.902D-03-0.524D-02
 Coeff:      0.157D-01 0.333D-01-0.381D+00 0.134D+01
 Gap=     0.639 Goal=   None    Shift=    0.000
 RMSDP=1.85D-09 MaxDP=1.19D-08 DE=-1.42D-13 OVMax= 3.18D-08

 SCF Done:  E(RHF) =  -150.785020067     A.U. after   10 cycles
            NFock= 10  Conv=0.19D-08     -V/T= 2.0000
 KE= 1.507846622230D+02 PE=-4.335989086596D+02 EE= 9.447588784610D+01
 Leave Link  502 at Thu Oct  7 01:18:20 2021, MaxMem=    33554432 cpu:         0.1
 (Enter /apps/gaussian/g09/amd-sse4a/l701.exe)
 Compute integral first derivatives.
 ... and contract with generalized density number  0.
 Leave Link  701 at Thu Oct  7 01:18:20 2021, MaxMem=    33554432 cpu:         0.1
 (Enter /apps/gaussian/g09/amd-sse4a/l702.exe)
 L702 exits ... SP integral derivatives will be done elsewhere.
 Leave Link  702 at Thu Oct  7 01:18:20 2021, MaxMem=    33554432 cpu:         0.0
 (Enter /apps/gaussian/g09/amd-sse4a/l703.exe)
 Compute integral first derivatives, UseDBF=F ICtDFT=           0.
 Integral derivatives from FoFJK, PRISM(SPDF).
 Calling FoFJK, ICntrl=      2127 FMM=F ISym2X=0 I1Cent= 0 IOpClX= 0 NMat=1 NMatS=1 NMatT=0.
 FoFJK:  IHMeth= 1 ICntrl=    2127 DoSepK=F KAlg= 0 I1Cent=   0 FoldK=F
 IRaf=         0 NMat=   1 IRICut=       1 DoRegI=T DoRafI=F ISym2E= 0.
 FoFCou: FMM=F IPFlag=           0 FMFlag=      100000 FMFlg1=         800
         NFxFlg=           0 DoJE=F BraDBF=F KetDBF=F FulRan=T
         wScrn=  0.000000 ICntrl=    2127 IOpCl=  0 I1Cent=           0 NGrid=           0
         NMat0=    1 NMatS0=      1 NMatT0=    0 NMatD0=    1 NMtDS0=    0 NMtDT0=    0
 Symmetry not used in FoFCou.
 Leave Link  703 at Thu Oct  7 01:18:20 2021, MaxMem=    33554432 cpu:         0.1
 (Enter /apps/gaussian/g09/amd-sse4a/l716.exe)
 Dipole        = 3.24185123D-14 3.74280442D-13 8.17124146D-14
 -------------------------------------------------------------------
 Center     Atomic                   Forces (Hartrees/Bohr)
 Number     Number              X              Y              Z
 -------------------------------------------------------------------
      1        8          -0.006396854    0.000000000    0.011178003
      2        8           0.006396854    0.000000000   -0.011178003
      3        1           0.000132830    0.000000000    0.004207221
      4        1          -0.000132830    0.000000000   -0.004207221
 -------------------------------------------------------------------
 Cartesian Forces:  Max     0.011178003 RMS     0.005531513
 Leave Link  716 at Thu Oct  7 01:18:20 2021, MaxMem=    33554432 cpu:         0.0
 (Enter /apps/gaussian/g09/amd-sse4a/l103.exe)

 GradGradGradGradGradGradGradGradGradGradGradGradGradGradGradGradGradGrad
 Berny optimization.
 Search for a local minimum.
 Step number   2 out of a maximum of   22
 All quantities printed in internal units (Hartrees-Bohrs-Radians)
 Update second derivatives using D2CorN and points    1    2
 DE= -3.62D-03 DEPred=-3.80D-03 R= 9.51D-01
 TightC=F SS=  1.41D+00  RLast= 1.12D-01 DXNew= 5.0454D-01 3.3684D-01
 Trust test= 9.51D-01 RLast= 1.12D-01 DXMaxT set to 3.37D-01
 The second derivative matrix:
                          X1        Y1        Z1        X2        Y2
           X1           0.60066
           Y1           0.00000   0.00176
           Z1          -0.03957   0.00000   0.40072
           X2          -0.08549   0.00000  -0.01437   0.60066
           Y2           0.00000   0.00176   0.00000   0.00000   0.00176
           Z2          -0.01437   0.00000  -0.34749  -0.03957   0.00000
           X3          -0.52224   0.00000   0.05495   0.00708   0.00000
           Y3           0.00000  -0.00176   0.00000   0.00000  -0.00176
           Z3          -0.00019   0.00000  -0.04074   0.05412   0.00000
           X4           0.00708   0.00000  -0.00101  -0.52224   0.00000
           Y4           0.00000  -0.00176   0.00000   0.00000  -0.00176
           Z4           0.05412   0.00000  -0.01250  -0.00019   0.00000
                          Z2        X3        Y3        Z3        X4
           Z2           0.40072
           X3          -0.00101   0.51549
           Y3           0.00000   0.00000   0.00176
           Z3          -0.01250  -0.05171   0.00000   0.06760
           X4           0.05495  -0.00032   0.00000  -0.00223   0.51549
           Y4           0.00000   0.00000   0.00176   0.00000   0.00000
           Z4          -0.04074  -0.00223   0.00000  -0.01437  -0.05171
                          Y4        Z4
           Y4           0.00176
           Z4           0.00000   0.06760
 ITU=  1  0
     Eigenvalues ---    0.00572   0.07657   0.13447   0.72821   0.84909
     Eigenvalues ---    0.97671
 RFO step:  Lambda=-8.51774859D-04 EMin= 5.71852914D-03
 Quartic linear search produced a step of -0.04285.
 TrRot= -0.005244  0.000000  0.000010  0.000000  0.003819  0.000000
 Variable       Old X    -DE/DX   Delta X   Delta X   Delta X     New X
                                 (Linear)    (Quad)   (Total)
    X1        0.05937  -0.00640  -0.00254  -0.01275  -0.02035   0.03902
    Y1        0.00000   0.00000   0.00000   0.00000   0.00000   0.00000
    Z1        0.03354   0.01118  -0.00144   0.01800   0.01640   0.04995
    X2       -0.05937   0.00640   0.00254   0.01275   0.02035  -0.03902
    Y2        0.00000   0.00000   0.00000   0.00000   0.00000   0.00000
    Z2        2.71282  -0.01118   0.00144  -0.01800  -0.01640   2.69641
    X3        1.82782   0.00013   0.00020  -0.01355  -0.01942   1.80841
    Y3        0.00000   0.00000   0.00000   0.00000   0.00000   0.00000
    Z3       -0.25153   0.00421   0.00173   0.03683   0.03164  -0.21989
    X4       -1.82782  -0.00013  -0.00020   0.01355   0.01942  -1.80841
    Y4        0.00000   0.00000   0.00000   0.00000   0.00000   0.00000
    Z4        2.99788  -0.00421  -0.00173  -0.03683  -0.03164   2.96624
         Item               Value     Threshold  Converged?
 Maximum Force            0.011178     0.000450     NO 
 RMS     Force            0.005532     0.000300     NO 
 Maximum Displacement     0.031640     0.001800     NO 
 RMS     Displacement     0.018535     0.001200     NO 
 Predicted change in Energy=-4.618443D-04
 Lowest energy point so far.  Saving SCF results.
 GradGradGradGradGradGradGradGradGradGradGradGradGradGradGradGradGradGrad

 Leave Link  103 at Thu Oct  7 01:18:20 2021, MaxMem=    33554432 cpu:         0.0
 (Enter /apps/gaussian/g09/amd-sse4a/l202.exe)
                          Input orientation:                          
 ---------------------------------------------------------------------
 Center     Atomic      Atomic             Coordinates (Angstroms)
 Number     Number       Type             X           Y           Z
 ---------------------------------------------------------------------
      1          8           0        0.020646    0.000000    0.026430
      2          8           0       -0.020646    0.000000    1.426880
      3          1           0        0.956968    0.000000   -0.116359
      4          1           0       -0.956968    0.000000    1.569669
 ---------------------------------------------------------------------
                    Distance matrix (angstroms):
                    1          2          3          4
     1  O    0.000000
     2  O    1.401058   0.000000
     3  H    0.947147   1.826832   0.000000
     4  H    1.826832   0.947147   2.550656   0.000000
 Symmetry turned off by external request.
 Stoichiometry    H2O2
 Framework group  C2H[SGH(H2O2)]
 Deg. of freedom     3
 Full point group                 C2H     NOp   4
 Rotational constants (GHZ):    320.0998439     29.0476423     26.6309973
 Leave Link  202 at Thu Oct  7 01:18:20 2021, MaxMem=    33554432 cpu:         0.0
 (Enter /apps/gaussian/g09/amd-sse4a/l301.exe)
 Standard basis: CC-pVDZ (5D, 7F)
 Ernie: Thresh=  0.10000D-02 Tol=  0.10000D-05 Strict=F.
 Ernie:  4 primitive shells out of 54 were deleted.
    38 basis functions,    80 primitive gaussians,    40 cartesian basis functions
     9 alpha electrons        9 beta electrons
       nuclear repulsion energy        37.9541667809 Hartrees.
 IExCor=    0 DFT=F Ex=HF Corr=None ExCW=0 ScaHFX=  1.000000
 ScaDFX=  1.000000  1.000000  1.000000  1.000000 ScalE2=  1.000000  1.000000
 IRadAn=      0 IRanWt=     -1 IRanGd=            0 ICorTp=0 IEmpDi=  4
 NAtoms=    4 NActive=    4 NUniq=    4 SFac= 1.00D+00 NAtFMM=   60 NAOKFM=F Big=F
 Integral buffers will be    131072 words long.
 Raffenetti 1 integral format.
 Two-electron integral symmetry is turned off.
 Leave Link  301 at Thu Oct  7 01:18:20 2021, MaxMem=    33554432 cpu:         0.0
 (Enter /apps/gaussian/g09/amd-sse4a/l302.exe)
 NPDir=0 NMtPBC=     1 NCelOv=     1 NCel=       1 NClECP=     1 NCelD=      1
         NCelK=      1 NCelE2=     1 NClLst=     1 CellRange=     0.0.
 One-electron integrals computed using PRISM.
 NBasis=    38 RedAO= T EigKep=  2.17D-02  NBF=    38
 NBsUse=    38 1.00D-06 EigRej= -1.00D+00 NBFU=    38
 Leave Link  302 at Thu Oct  7 01:18:20 2021, MaxMem=    33554432 cpu:         0.1
 (Enter /apps/gaussian/g09/amd-sse4a/l303.exe)
 DipDrv:  MaxL=1.
 Leave Link  303 at Thu Oct  7 01:18:20 2021, MaxMem=    33554432 cpu:         0.0
 (Enter /apps/gaussian/g09/amd-sse4a/l401.exe)
 Initial guess from the checkpoint file:  "/blue/chm6586/le.chen/hw3/q2/Gau-73529.chk"
 B after Tr=    -0.012575    0.000000    0.000058
         Rot=    0.999990    0.000000   -0.004579    0.000000 Ang=  -0.52 deg.
 Guess basis will be translated and rotated to current coordinates.
 JPrj=2 DoOrth=T DoCkMO=T.
 Generating alternative initial guess.
 ExpMin= 1.22D-01 ExpMax= 1.17D+04 ExpMxC= 4.01D+02 IAcc=1 IRadAn=         1 AccDes= 0.00D+00
 Harris functional with IExCor=  205 and IRadAn=       1 diagonalized for initial guess.
 HarFok:  IExCor=  205 AccDes= 0.00D+00 IRadAn=         1 IDoV= 1 UseB2=F ITyADJ=14
 ICtDFT=  3500011 ScaDFX=  1.000000  1.000000  1.000000  1.000000
 FoFCou: FMM=F IPFlag=           0 FMFlag=      100000 FMFlg1=           0
         NFxFlg=           0 DoJE=T BraDBF=F KetDBF=T FulRan=T
         wScrn=  0.000000 ICntrl=     500 IOpCl=  0 I1Cent=   200000004 NGrid=           0
         NMat0=    1 NMatS0=      1 NMatT0=    0 NMatD0=    1 NMtDS0=    0 NMtDT0=    0
 Symmetry not used in FoFCou.
 Harris En= -150.870460326640    
 Leave Link  401 at Thu Oct  7 01:18:21 2021, MaxMem=    33554432 cpu:         0.1
 (Enter /apps/gaussian/g09/amd-sse4a/l502.exe)
 Closed shell SCF:
 Using DIIS extrapolation, IDIIS=  1040.
 Two-electron integral symmetry not used.
 Keep R1 ints in memory in canonical form, NReq=1141033.
 IVT=       23838 IEndB=       23838 NGot=    33554432 MDV=    33255684
 LenX=    33255684 LenY=    33253643
 Requested convergence on RMS density matrix=1.00D-08 within 128 cycles.
 Requested convergence on MAX density matrix=1.00D-06.
 Requested convergence on             energy=1.00D-06.
 No special actions if energy rises.
 FoFCou: FMM=F IPFlag=           0 FMFlag=           0 FMFlg1=           0
         NFxFlg=           0 DoJE=F BraDBF=F KetDBF=F FulRan=T
         wScrn=  0.000000 ICntrl=     600 IOpCl=  0 I1Cent=           0 NGrid=           0
         NMat0=    1 NMatS0=    741 NMatT0=    0 NMatD0=    1 NMtDS0=    0 NMtDT0=    0
 Symmetry not used in FoFCou.

 Cycle   1  Pass 1  IDiag  1:
 E= -150.785197816884    
 DIIS: error= 2.55D-03 at cycle   1 NSaved=   1.
 NSaved= 1 IEnMin= 1 EnMin= -150.785197816884     IErMin= 1 ErrMin= 2.55D-03
 ErrMax= 2.55D-03  0.00D+00 EMaxC= 1.00D-01 BMatC= 2.07D-04 BMatP= 2.07D-04
 IDIUse=3 WtCom= 9.74D-01 WtEn= 2.55D-02
 Coeff-Com:  0.100D+01
 Coeff-En:   0.100D+01
 Coeff:      0.100D+01
 Gap=     1.259 Goal=   None    Shift=    0.000
 GapD=    1.259 DampG=2.000 DampE=1.000 DampFc=2.0000 IDamp=-1.
 RMSDP=3.00D-04 MaxDP=1.83D-03              OVMax= 2.71D-03

 Cycle   2  Pass 1  IDiag  1:
 E= -150.785387024083     Delta-E=       -0.000189207199 Rises=F Damp=F
 DIIS: error= 3.50D-04 at cycle   2 NSaved=   2.
 NSaved= 2 IEnMin= 2 EnMin= -150.785387024083     IErMin= 2 ErrMin= 3.50D-04
 ErrMax= 3.50D-04  0.00D+00 EMaxC= 1.00D-01 BMatC= 7.94D-06 BMatP= 2.07D-04
 IDIUse=3 WtCom= 9.97D-01 WtEn= 3.50D-03
 Coeff-Com: -0.148D+00 0.115D+01
 Coeff-En:   0.000D+00 0.100D+01
 Coeff:     -0.147D+00 0.115D+01
 Gap=     0.635 Goal=   None    Shift=    0.000
 RMSDP=7.76D-05 MaxDP=5.24D-04 DE=-1.89D-04 OVMax= 9.75D-04

 Cycle   3  Pass 1  IDiag  1:
 E= -150.785396469075     Delta-E=       -0.000009444992 Rises=F Damp=F
 DIIS: error= 1.35D-04 at cycle   3 NSaved=   3.
 NSaved= 3 IEnMin= 3 EnMin= -150.785396469075     IErMin= 3 ErrMin= 1.35D-04
 ErrMax= 1.35D-04  0.00D+00 EMaxC= 1.00D-01 BMatC= 8.01D-07 BMatP= 7.94D-06
 IDIUse=3 WtCom= 9.99D-01 WtEn= 1.35D-03
 Coeff-Com: -0.612D-01 0.262D+00 0.799D+00
 Coeff-En:   0.000D+00 0.000D+00 0.100D+01
 Coeff:     -0.611D-01 0.261D+00 0.800D+00
 Gap=     0.636 Goal=   None    Shift=    0.000
 RMSDP=1.65D-05 MaxDP=1.50D-04 DE=-9.44D-06 OVMax= 2.28D-04

 Cycle   4  Pass 1  IDiag  1:
 E= -150.785397141045     Delta-E=       -0.000000671970 Rises=F Damp=F
 DIIS: error= 3.22D-05 at cycle   4 NSaved=   4.
 NSaved= 4 IEnMin= 4 EnMin= -150.785397141045     IErMin= 4 ErrMin= 3.22D-05
 ErrMax= 3.22D-05  0.00D+00 EMaxC= 1.00D-01 BMatC= 3.05D-08 BMatP= 8.01D-07
 IDIUse=1 WtCom= 1.00D+00 WtEn= 0.00D+00
 Coeff-Com:  0.156D-01-0.984D-01-0.812D-01 0.116D+01
 Coeff:      0.156D-01-0.984D-01-0.812D-01 0.116D+01
 Gap=     0.636 Goal=   None    Shift=    0.000
 RMSDP=6.02D-06 MaxDP=3.94D-05 DE=-6.72D-07 OVMax= 1.00D-04

 Cycle   5  Pass 1  IDiag  1:
 E= -150.785397196197     Delta-E=       -0.000000055152 Rises=F Damp=F
 DIIS: error= 8.62D-06 at cycle   5 NSaved=   5.
 NSaved= 5 IEnMin= 5 EnMin= -150.785397196197     IErMin= 5 ErrMin= 8.62D-06
 ErrMax= 8.62D-06  0.00D+00 EMaxC= 1.00D-01 BMatC= 1.43D-09 BMatP= 3.05D-08
 IDIUse=1 WtCom= 1.00D+00 WtEn= 0.00D+00
 Coeff-Com: -0.596D-03 0.867D-02-0.166D-01-0.219D+00 0.123D+01
 Coeff:     -0.596D-03 0.867D-02-0.166D-01-0.219D+00 0.123D+01
 Gap=     0.636 Goal=   None    Shift=    0.000
 RMSDP=1.59D-06 MaxDP=1.30D-05 DE=-5.52D-08 OVMax= 3.72D-05

 Cycle   6  Pass 1  IDiag  1:
 E= -150.785397199964     Delta-E=       -0.000000003767 Rises=F Damp=F
 DIIS: error= 1.73D-06 at cycle   6 NSaved=   6.
 NSaved= 6 IEnMin= 6 EnMin= -150.785397199964     IErMin= 6 ErrMin= 1.73D-06
 ErrMax= 1.73D-06  0.00D+00 EMaxC= 1.00D-01 BMatC= 9.83D-11 BMatP= 1.43D-09
 IDIUse=1 WtCom= 1.00D+00 WtEn= 0.00D+00
 Coeff-Com: -0.745D-03 0.329D-02 0.868D-02-0.985D-02-0.339D+00 0.134D+01
 Coeff:     -0.745D-03 0.329D-02 0.868D-02-0.985D-02-0.339D+00 0.134D+01
 Gap=     0.636 Goal=   None    Shift=    0.000
 RMSDP=4.71D-07 MaxDP=4.16D-06 DE=-3.77D-09 OVMax= 1.23D-05

 Cycle   7  Pass 1  IDiag  1:
 E= -150.785397200239     Delta-E=       -0.000000000276 Rises=F Damp=F
 DIIS: error= 3.39D-07 at cycle   7 NSaved=   7.
 NSaved= 7 IEnMin= 7 EnMin= -150.785397200239     IErMin= 7 ErrMin= 3.39D-07
 ErrMax= 3.39D-07  0.00D+00 EMaxC= 1.00D-01 BMatC= 2.08D-12 BMatP= 9.83D-11
 IDIUse=1 WtCom= 1.00D+00 WtEn= 0.00D+00
 Coeff-Com:  0.198D-03-0.114D-02-0.104D-02 0.129D-01 0.435D-02-0.204D+00
 Coeff-Com:  0.119D+01
 Coeff:      0.198D-03-0.114D-02-0.104D-02 0.129D-01 0.435D-02-0.204D+00
 Coeff:      0.119D+01
 Gap=     0.636 Goal=   None    Shift=    0.000
 RMSDP=5.44D-08 MaxDP=4.48D-07 DE=-2.76D-10 OVMax= 1.37D-06

 Cycle   8  Pass 1  IDiag  1:
 E= -150.785397200244     Delta-E=       -0.000000000005 Rises=F Damp=F
 DIIS: error= 4.46D-08 at cycle   8 NSaved=   8.
 NSaved= 8 IEnMin= 8 EnMin= -150.785397200244     IErMin= 8 ErrMin= 4.46D-08
 ErrMax= 4.46D-08  0.00D+00 EMaxC= 1.00D-01 BMatC= 2.91D-14 BMatP= 2.08D-12
 IDIUse=1 WtCom= 1.00D+00 WtEn= 0.00D+00
 Coeff-Com:  0.818D-05-0.388D-04-0.102D-03-0.121D-03 0.489D-02-0.175D-01
 Coeff-Com: -0.627D-01 0.108D+01
 Coeff:      0.818D-05-0.388D-04-0.102D-03-0.121D-03 0.489D-02-0.175D-01
 Coeff:     -0.627D-01 0.108D+01
 Gap=     0.636 Goal=   None    Shift=    0.000
 RMSDP=5.65D-09 MaxDP=4.58D-08 DE=-4.55D-12 OVMax= 1.38D-07

 SCF Done:  E(RHF) =  -150.785397200     A.U. after    8 cycles
            NFock=  8  Conv=0.57D-08     -V/T= 1.9996
 KE= 1.508409135351D+02 PE=-4.344311728475D+02 EE= 9.485069533130D+01
 Leave Link  502 at Thu Oct  7 01:18:21 2021, MaxMem=    33554432 cpu:         0.1
 (Enter /apps/gaussian/g09/amd-sse4a/l701.exe)
 Compute integral first derivatives.
 ... and contract with generalized density number  0.
 Leave Link  701 at Thu Oct  7 01:18:21 2021, MaxMem=    33554432 cpu:         0.1
 (Enter /apps/gaussian/g09/amd-sse4a/l702.exe)
 L702 exits ... SP integral derivatives will be done elsewhere.
 Leave Link  702 at Thu Oct  7 01:18:21 2021, MaxMem=    33554432 cpu:         0.0
 (Enter /apps/gaussian/g09/amd-sse4a/l703.exe)
 Compute integral first derivatives, UseDBF=F ICtDFT=           0.
 Integral derivatives from FoFJK, PRISM(SPDF).
 Calling FoFJK, ICntrl=      2127 FMM=F ISym2X=0 I1Cent= 0 IOpClX= 0 NMat=1 NMatS=1 NMatT=0.
 FoFJK:  IHMeth= 1 ICntrl=    2127 DoSepK=F KAlg= 0 I1Cent=   0 FoldK=F
 IRaf=         0 NMat=   1 IRICut=       1 DoRegI=T DoRafI=F ISym2E= 0.
 FoFCou: FMM=F IPFlag=           0 FMFlag=      100000 FMFlg1=         800
         NFxFlg=           0 DoJE=F BraDBF=F KetDBF=F FulRan=T
         wScrn=  0.000000 ICntrl=    2127 IOpCl=  0 I1Cent=           0 NGrid=           0
         NMat0=    1 NMatS0=      1 NMatT0=    0 NMatD0=    1 NMtDS0=    0 NMtDT0=    0
 Symmetry not used in FoFCou.
 Leave Link  703 at Thu Oct  7 01:18:21 2021, MaxMem=    33554432 cpu:         0.1
 (Enter /apps/gaussian/g09/amd-sse4a/l716.exe)
 Dipole        = 1.99840144D-14-1.82406447D-11-1.13686838D-13
 -------------------------------------------------------------------
 Center     Atomic                   Forces (Hartrees/Bohr)
 Number     Number              X              Y              Z
 -------------------------------------------------------------------
      1        8           0.001694878    0.000000000   -0.000288854
      2        8          -0.001694878    0.000000000    0.000288854
      3        1          -0.000079226    0.000000000   -0.001164141
      4        1           0.000079226    0.000000000    0.001164141
 -------------------------------------------------------------------
 Cartesian Forces:  Max     0.001694878 RMS     0.000848287
 Leave Link  716 at Thu Oct  7 01:18:21 2021, MaxMem=    33554432 cpu:         0.0
 (Enter /apps/gaussian/g09/amd-sse4a/l103.exe)

 GradGradGradGradGradGradGradGradGradGradGradGradGradGradGradGradGradGrad
 Berny optimization.
 Search for a local minimum.
 Step number   3 out of a maximum of   22
 All quantities printed in internal units (Hartrees-Bohrs-Radians)
 Update second derivatives using D2CorN and points    1    2    3
 DE= -3.77D-04 DEPred=-4.62D-04 R= 8.17D-01
 TightC=F SS=  1.41D+00  RLast= 6.42D-02 DXNew= 5.6650D-01 1.9262D-01
 Trust test= 8.17D-01 RLast= 6.42D-02 DXMaxT set to 3.37D-01
 The second derivative matrix:
                          X1        Y1        Z1        X2        Y2
           X1           0.61122
           Y1           0.00000   0.00176
           Z1          -0.05768   0.00000   0.37533
           X2          -0.09605   0.00000   0.00374   0.61122
           Y2           0.00000   0.00176   0.00000   0.00000   0.00176
           Z2           0.00374   0.00000  -0.32209  -0.05768   0.00000
           X3          -0.51845   0.00000   0.05824   0.00328   0.00000
           Y3           0.00000  -0.00176   0.00000   0.00000  -0.00176
           Z3          -0.01064   0.00000  -0.03138   0.06458   0.00000
           X4           0.00328   0.00000  -0.00430  -0.51845   0.00000
           Y4           0.00000  -0.00176   0.00000   0.00000  -0.00176
           Z4           0.06458   0.00000  -0.02186  -0.01064   0.00000
                          Z2        X3        Y3        Z3        X4
           Z2           0.37533
           X3          -0.00430   0.51687
           Y3           0.00000   0.00000   0.00176
           Z3          -0.02186  -0.05444   0.00000   0.07616
           X4           0.05824  -0.00170   0.00000   0.00050   0.51687
           Y4           0.00000   0.00000   0.00176   0.00000   0.00000
           Z4          -0.03138   0.00050   0.00000  -0.02292  -0.05444
                          Y4        Z4
           Y4           0.00176
           Z4           0.00000   0.07616
 ITU=  1  1  0
     Eigenvalues ---    0.00572   0.07657   0.16783   0.66987   0.84909
     Eigenvalues ---    0.98456
 RFO step:  Lambda=-7.99776660D-06 EMin= 5.71852914D-03
 Quartic linear search produced a step of -0.13844.
 TrRot=  0.000462  0.000000  0.000000  0.000000 -0.000337  0.000000
 Variable       Old X    -DE/DX   Delta X   Delta X   Delta X     New X
                                 (Linear)    (Quad)   (Total)
    X1        0.03902   0.00169   0.00282   0.00100   0.00426   0.04328
    Y1        0.00000   0.00000   0.00000   0.00000   0.00000   0.00000
    Z1        0.04995  -0.00029  -0.00227   0.00191  -0.00034   0.04960
    X2       -0.03902  -0.00169  -0.00282  -0.00100  -0.00426  -0.04328
    Y2        0.00000   0.00000   0.00000   0.00000   0.00000   0.00000
    Z2        2.69641   0.00029   0.00227  -0.00191   0.00034   2.69676
    X3        1.80841  -0.00008   0.00269   0.00038   0.00361   1.81202
    Y3        0.00000   0.00000   0.00000   0.00000   0.00000   0.00000
    Z3       -0.21989  -0.00116  -0.00438  -0.00252  -0.00629  -0.22618
    X4       -1.80841   0.00008  -0.00269  -0.00038  -0.00361  -1.81202
    Y4        0.00000   0.00000   0.00000   0.00000   0.00000   0.00000
    Z4        2.96624   0.00116   0.00438   0.00252   0.00629   2.97254
         Item               Value     Threshold  Converged?
 Maximum Force            0.001695     0.000450     NO 
 RMS     Force            0.000848     0.000300     NO 
 Maximum Displacement     0.006292     0.001800     NO 
 RMS     Displacement     0.003438     0.001200     NO 
 Predicted change in Energy=-1.465340D-05
 Lowest energy point so far.  Saving SCF results.
 GradGradGradGradGradGradGradGradGradGradGradGradGradGradGradGradGradGrad

 Leave Link  103 at Thu Oct  7 01:18:21 2021, MaxMem=    33554432 cpu:         0.0
 (Enter /apps/gaussian/g09/amd-sse4a/l202.exe)
                          Input orientation:                          
 ---------------------------------------------------------------------
 Center     Atomic      Atomic             Coordinates (Angstroms)
 Number     Number       Type             X           Y           Z
 ---------------------------------------------------------------------
      1          8           0        0.022901    0.000000    0.026249
      2          8           0       -0.022901    0.000000    1.427061
      3          1           0        0.958879    0.000000   -0.119688
      4          1           0       -0.958879    0.000000    1.572998
 ---------------------------------------------------------------------
                    Distance matrix (angstroms):
                    1          2          3          4
     1  O    0.000000
     2  O    1.401561   0.000000
     3  H    0.947287   1.832028   0.000000
     4  H    1.832028   0.947287   2.557927   0.000000
 Symmetry turned off by external request.
 Stoichiometry    H2O2
 Framework group  C2H[SGH(H2O2)]
 Deg. of freedom     3
 Full point group                 C2H     NOp   4
 Rotational constants (GHZ):    321.2093817     28.9885825     26.5889743
 Leave Link  202 at Thu Oct  7 01:18:21 2021, MaxMem=    33554432 cpu:         0.0
 (Enter /apps/gaussian/g09/amd-sse4a/l301.exe)
 Standard basis: CC-pVDZ (5D, 7F)
 Ernie: Thresh=  0.10000D-02 Tol=  0.10000D-05 Strict=F.
 Ernie:  4 primitive shells out of 54 were deleted.
    38 basis functions,    80 primitive gaussians,    40 cartesian basis functions
     9 alpha electrons        9 beta electrons
       nuclear repulsion energy        37.9304342593 Hartrees.
 IExCor=    0 DFT=F Ex=HF Corr=None ExCW=0 ScaHFX=  1.000000
 ScaDFX=  1.000000  1.000000  1.000000  1.000000 ScalE2=  1.000000  1.000000
 IRadAn=      0 IRanWt=     -1 IRanGd=            0 ICorTp=0 IEmpDi=  4
 NAtoms=    4 NActive=    4 NUniq=    4 SFac= 1.00D+00 NAtFMM=   60 NAOKFM=F Big=F
 Integral buffers will be    131072 words long.
 Raffenetti 1 integral format.
 Two-electron integral symmetry is turned off.
 Leave Link  301 at Thu Oct  7 01:18:21 2021, MaxMem=    33554432 cpu:         0.0
 (Enter /apps/gaussian/g09/amd-sse4a/l302.exe)
 NPDir=0 NMtPBC=     1 NCelOv=     1 NCel=       1 NClECP=     1 NCelD=      1
         NCelK=      1 NCelE2=     1 NClLst=     1 CellRange=     0.0.
 One-electron integrals computed using PRISM.
 NBasis=    38 RedAO= T EigKep=  2.17D-02  NBF=    38
 NBsUse=    38 1.00D-06 EigRej= -1.00D+00 NBFU=    38
 Leave Link  302 at Thu Oct  7 01:18:21 2021, MaxMem=    33554432 cpu:         0.1
 (Enter /apps/gaussian/g09/amd-sse4a/l303.exe)
 DipDrv:  MaxL=1.
 Leave Link  303 at Thu Oct  7 01:18:21 2021, MaxMem=    33554432 cpu:         0.0
 (Enter /apps/gaussian/g09/amd-sse4a/l401.exe)
 Initial guess from the checkpoint file:  "/blue/chm6586/le.chen/hw3/q2/Gau-73529.chk"
 B after Tr=     0.002724    0.000000    0.000003
         Rot=    1.000000    0.000000    0.000992    0.000000 Ang=   0.11 deg.
 Guess basis will be translated and rotated to current coordinates.
 JPrj=2 DoOrth=T DoCkMO=T.
 Leave Link  401 at Thu Oct  7 01:18:21 2021, MaxMem=    33554432 cpu:         0.0
 (Enter /apps/gaussian/g09/amd-sse4a/l502.exe)
 Closed shell SCF:
 Using DIIS extrapolation, IDIIS=  1040.
 Two-electron integral symmetry not used.
 Keep R1 ints in memory in canonical form, NReq=1141033.
 IVT=       23838 IEndB=       23838 NGot=    33554432 MDV=    33255684
 LenX=    33255684 LenY=    33253643
 Requested convergence on RMS density matrix=1.00D-08 within 128 cycles.
 Requested convergence on MAX density matrix=1.00D-06.
 Requested convergence on             energy=1.00D-06.
 No special actions if energy rises.
 FoFCou: FMM=F IPFlag=           0 FMFlag=           0 FMFlg1=           0
         NFxFlg=           0 DoJE=F BraDBF=F KetDBF=F FulRan=T
         wScrn=  0.000000 ICntrl=     600 IOpCl=  0 I1Cent=           0 NGrid=           0
         NMat0=    1 NMatS0=    741 NMatT0=    0 NMatD0=    1 NMtDS0=    0 NMtDT0=    0
 Symmetry not used in FoFCou.

 Cycle   1  Pass 1  IDiag  1:
 E= -150.785406042571    
 DIIS: error= 4.18D-04 at cycle   1 NSaved=   1.
 NSaved= 1 IEnMin= 1 EnMin= -150.785406042571     IErMin= 1 ErrMin= 4.18D-04
 ErrMax= 4.18D-04  0.00D+00 EMaxC= 1.00D-01 BMatC= 5.22D-06 BMatP= 5.22D-06
 IDIUse=3 WtCom= 9.96D-01 WtEn= 4.18D-03
 Coeff-Com:  0.100D+01
 Coeff-En:   0.100D+01
 Coeff:      0.100D+01
 Gap=     1.265 Goal=   None    Shift=    0.000
 RMSDP=6.20D-05 MaxDP=5.20D-04              OVMax= 6.08D-04

 Cycle   2  Pass 1  IDiag  1:
 E= -150.785411223827     Delta-E=       -0.000005181256 Rises=F Damp=F
 DIIS: error= 6.19D-05 at cycle   2 NSaved=   2.
 NSaved= 2 IEnMin= 2 EnMin= -150.785411223827     IErMin= 2 ErrMin= 6.19D-05
 ErrMax= 6.19D-05  0.00D+00 EMaxC= 1.00D-01 BMatC= 1.83D-07 BMatP= 5.22D-06
 IDIUse=1 WtCom= 1.00D+00 WtEn= 0.00D+00
 Coeff-Com: -0.200D+00 0.120D+01
 Coeff:     -0.200D+00 0.120D+01
 Gap=     0.636 Goal=   None    Shift=    0.000
 RMSDP=1.41D-05 MaxDP=1.22D-04 DE=-5.18D-06 OVMax= 1.72D-04

 Cycle   3  Pass 1  IDiag  1:
 E= -150.785411448790     Delta-E=       -0.000000224964 Rises=F Damp=F
 DIIS: error= 7.44D-06 at cycle   3 NSaved=   3.
 NSaved= 3 IEnMin= 3 EnMin= -150.785411448790     IErMin= 3 ErrMin= 7.44D-06
 ErrMax= 7.44D-06  0.00D+00 EMaxC= 1.00D-01 BMatC= 1.67D-09 BMatP= 1.83D-07
 IDIUse=1 WtCom= 1.00D+00 WtEn= 0.00D+00
 Coeff-Com:  0.156D-01-0.132D+00 0.112D+01
 Coeff:      0.156D-01-0.132D+00 0.112D+01
 Gap=     0.636 Goal=   None    Shift=    0.000
 RMSDP=1.37D-06 MaxDP=1.09D-05 DE=-2.25D-07 OVMax= 1.69D-05

 Cycle   4  Pass 1  IDiag  1:
 E= -150.785411451046     Delta-E=       -0.000000002255 Rises=F Damp=F
 DIIS: error= 1.41D-06 at cycle   4 NSaved=   4.
 NSaved= 4 IEnMin= 4 EnMin= -150.785411451046     IErMin= 4 ErrMin= 1.41D-06
 ErrMax= 1.41D-06  0.00D+00 EMaxC= 1.00D-01 BMatC= 1.02D-10 BMatP= 1.67D-09
 IDIUse=1 WtCom= 1.00D+00 WtEn= 0.00D+00
 Coeff-Com:  0.612D-02-0.426D-01 0.130D+00 0.907D+00
 Coeff:      0.612D-02-0.426D-01 0.130D+00 0.907D+00
 Gap=     0.636 Goal=   None    Shift=    0.000
 RMSDP=2.83D-07 MaxDP=2.00D-06 DE=-2.26D-09 OVMax= 3.73D-06

 Cycle   5  Pass 1  IDiag  1:
 E= -150.785411451165     Delta-E=       -0.000000000120 Rises=F Damp=F
 DIIS: error= 4.66D-07 at cycle   5 NSaved=   5.
 NSaved= 5 IEnMin= 5 EnMin= -150.785411451165     IErMin= 5 ErrMin= 4.66D-07
 ErrMax= 4.66D-07  0.00D+00 EMaxC= 1.00D-01 BMatC= 1.03D-11 BMatP= 1.02D-10
 IDIUse=1 WtCom= 1.00D+00 WtEn= 0.00D+00
 Coeff-Com: -0.324D-03 0.406D-02-0.596D-01 0.115D+00 0.941D+00
 Coeff:     -0.324D-03 0.406D-02-0.596D-01 0.115D+00 0.941D+00
 Gap=     0.636 Goal=   None    Shift=    0.000
 RMSDP=9.07D-08 MaxDP=6.43D-07 DE=-1.20D-10 OVMax= 1.76D-06

 Cycle   6  Pass 1  IDiag  1:
 E= -150.785411451180     Delta-E=       -0.000000000015 Rises=F Damp=F
 DIIS: error= 1.88D-07 at cycle   6 NSaved=   6.
 NSaved= 6 IEnMin= 6 EnMin= -150.785411451180     IErMin= 6 ErrMin= 1.88D-07
 ErrMax= 1.88D-07  0.00D+00 EMaxC= 1.00D-01 BMatC= 7.44D-13 BMatP= 1.03D-11
 IDIUse=1 WtCom= 1.00D+00 WtEn= 0.00D+00
 Coeff-Com: -0.386D-03 0.208D-02 0.984D-02-0.101D+00-0.316D+00 0.141D+01
 Coeff:     -0.386D-03 0.208D-02 0.984D-02-0.101D+00-0.316D+00 0.141D+01
 Gap=     0.636 Goal=   None    Shift=    0.000
 RMSDP=4.12D-08 MaxDP=3.49D-07 DE=-1.51D-11 OVMax= 9.99D-07

 Cycle   7  Pass 1  IDiag  1:
 E= -150.785411451182     Delta-E=       -0.000000000002 Rises=F Damp=F
 DIIS: error= 2.72D-08 at cycle   7 NSaved=   7.
 NSaved= 7 IEnMin= 7 EnMin= -150.785411451182     IErMin= 7 ErrMin= 2.72D-08
 ErrMax= 2.72D-08  0.00D+00 EMaxC= 1.00D-01 BMatC= 2.14D-14 BMatP= 7.44D-13
 IDIUse=1 WtCom= 1.00D+00 WtEn= 0.00D+00
 Coeff-Com:  0.903D-04-0.536D-03-0.124D-02 0.249D-01 0.633D-01-0.427D+00
 Coeff-Com:  0.134D+01
 Coeff:      0.903D-04-0.536D-03-0.124D-02 0.249D-01 0.633D-01-0.427D+00
 Coeff:      0.134D+01
 Gap=     0.636 Goal=   None    Shift=    0.000
 RMSDP=6.28D-09 MaxDP=6.45D-08 DE=-1.99D-12 OVMax= 1.71D-07

 SCF Done:  E(RHF) =  -150.785411451     A.U. after    7 cycles
            NFock=  7  Conv=0.63D-08     -V/T= 1.9997
 KE= 1.508365080203D+02 PE=-4.343829509933D+02 EE= 9.483059726251D+01
 Leave Link  502 at Thu Oct  7 01:18:21 2021, MaxMem=    33554432 cpu:         0.1
 (Enter /apps/gaussian/g09/amd-sse4a/l701.exe)
 Compute integral first derivatives.
 ... and contract with generalized density number  0.
 Leave Link  701 at Thu Oct  7 01:18:21 2021, MaxMem=    33554432 cpu:         0.1
 (Enter /apps/gaussian/g09/amd-sse4a/l702.exe)
 L702 exits ... SP integral derivatives will be done elsewhere.
 Leave Link  702 at Thu Oct  7 01:18:21 2021, MaxMem=    33554432 cpu:         0.0
 (Enter /apps/gaussian/g09/amd-sse4a/l703.exe)
 Compute integral first derivatives, UseDBF=F ICtDFT=           0.
 Integral derivatives from FoFJK, PRISM(SPDF).
 Calling FoFJK, ICntrl=      2127 FMM=F ISym2X=0 I1Cent= 0 IOpClX= 0 NMat=1 NMatS=1 NMatT=0.
 FoFJK:  IHMeth= 1 ICntrl=    2127 DoSepK=F KAlg= 0 I1Cent=   0 FoldK=F
 IRaf=         0 NMat=   1 IRICut=       1 DoRegI=T DoRafI=F ISym2E= 0.
 FoFCou: FMM=F IPFlag=           0 FMFlag=      100000 FMFlg1=         800
         NFxFlg=           0 DoJE=F BraDBF=F KetDBF=F FulRan=T
         wScrn=  0.000000 ICntrl=    2127 IOpCl=  0 I1Cent=           0 NGrid=           0
         NMat0=    1 NMatS0=      1 NMatT0=    0 NMatD0=    1 NMtDS0=    0 NMtDT0=    0
 Symmetry not used in FoFCou.
 Leave Link  703 at Thu Oct  7 01:18:21 2021, MaxMem=    33554432 cpu:         0.1
 (Enter /apps/gaussian/g09/amd-sse4a/l716.exe)
 Dipole        =-7.54951657D-15-3.95691225D-11-1.77635684D-15
 -------------------------------------------------------------------
 Center     Atomic                   Forces (Hartrees/Bohr)
 Number     Number              X              Y              Z
 -------------------------------------------------------------------
      1        8           0.000071281    0.000000000   -0.000132728
      2        8          -0.000071281    0.000000000    0.000132728
      3        1          -0.000082646    0.000000000    0.000024045
      4        1           0.000082646    0.000000000   -0.000024045
 -------------------------------------------------------------------
 Cartesian Forces:  Max     0.000132728 RMS     0.000070836
 Leave Link  716 at Thu Oct  7 01:18:21 2021, MaxMem=    33554432 cpu:         0.0
 (Enter /apps/gaussian/g09/amd-sse4a/l103.exe)

 GradGradGradGradGradGradGradGradGradGradGradGradGradGradGradGradGradGrad
 Berny optimization.
 Search for a local minimum.
 Step number   4 out of a maximum of   22
 All quantities printed in internal units (Hartrees-Bohrs-Radians)
 Update second derivatives using D2CorN and points    1    2    3    4
 DE= -1.43D-05 DEPred=-1.47D-05 R= 9.73D-01
 TightC=F SS=  1.41D+00  RLast= 1.19D-02 DXNew= 5.6650D-01 3.5726D-02
 Trust test= 9.73D-01 RLast= 1.19D-02 DXMaxT set to 3.37D-01
 The second derivative matrix:
                          X1        Y1        Z1        X2        Y2
           X1           0.61649
           Y1           0.00000   0.00176
           Z1          -0.05818   0.00000   0.37116
           X2          -0.10133   0.00000   0.00424   0.61649
           Y2           0.00000   0.00176   0.00000   0.00000   0.00176
           Z2           0.00424   0.00000  -0.31792  -0.05818   0.00000
           X3          -0.52112   0.00000   0.05824   0.00596   0.00000
           Y3           0.00000  -0.00176   0.00000   0.00000  -0.00176
           Z3          -0.01256   0.00000  -0.03190   0.06650   0.00000
           X4           0.00596   0.00000  -0.00430  -0.52112   0.00000
           Y4           0.00000  -0.00176   0.00000   0.00000  -0.00176
           Z4           0.06650   0.00000  -0.02133  -0.01256   0.00000
                          Z2        X3        Y3        Z3        X4
           Z2           0.37116
           X3          -0.00430   0.51929
           Y3           0.00000   0.00000   0.00176
           Z3          -0.02133  -0.05433   0.00000   0.07756
           X4           0.05824  -0.00413   0.00000   0.00039   0.51929
           Y4           0.00000   0.00000   0.00176   0.00000   0.00000
           Z4          -0.03190   0.00039   0.00000  -0.02432  -0.05433
                          Y4        Z4
           Y4           0.00176
           Z4           0.00000   0.07756
 ITU=  1  1  1  0
     Eigenvalues ---    0.00572   0.07657   0.17227   0.66269   0.84909
     Eigenvalues ---    0.99569
 RFO step:  Lambda=-7.25661886D-08 EMin= 5.71852914D-03
 Quartic linear search produced a step of -0.00696.
 TrRot=  0.000006  0.000000  0.000000  0.000000 -0.000004  0.000000
 Variable       Old X    -DE/DX   Delta X   Delta X   Delta X     New X
                                 (Linear)    (Quad)   (Total)
    X1        0.04328   0.00007  -0.00003   0.00002   0.00000   0.04327
    Y1        0.00000   0.00000   0.00000   0.00000   0.00000   0.00000
    Z1        0.04960  -0.00013   0.00000  -0.00018  -0.00018   0.04942
    X2       -0.04328  -0.00007   0.00003  -0.00002   0.00000  -0.04327
    Y2        0.00000   0.00000   0.00000   0.00000   0.00000   0.00000
    Z2        2.69676   0.00013   0.00000   0.00018   0.00018   2.69693
    X3        1.81202  -0.00008  -0.00003  -0.00011  -0.00013   1.81189
    Y3        0.00000   0.00000   0.00000   0.00000   0.00000   0.00000
    Z3       -0.22618   0.00002   0.00004   0.00007   0.00012  -0.22605
    X4       -1.81202   0.00008   0.00003   0.00011   0.00013  -1.81189
    Y4        0.00000   0.00000   0.00000   0.00000   0.00000   0.00000
    Z4        2.97254  -0.00002  -0.00004  -0.00007  -0.00012   2.97241
         Item               Value     Threshold  Converged?
 Maximum Force            0.000133     0.000450     YES
 RMS     Force            0.000071     0.000300     YES
 Maximum Displacement     0.000179     0.001800     YES
 RMS     Displacement     0.000104     0.001200     YES
 Predicted change in Energy=-3.729697D-08
 Optimization completed.
    -- Stationary point found.
 Lowest energy point so far.  Saving SCF results.
 GradGradGradGradGradGradGradGradGradGradGradGradGradGradGradGradGradGrad

 Largest change from initial coordinates is atom    2       0.013 Angstoms.
 Leave Link  103 at Thu Oct  7 01:18:21 2021, MaxMem=    33554432 cpu:         0.0
 (Enter /apps/gaussian/g09/amd-sse4a/l202.exe)
                          Input orientation:                          
 ---------------------------------------------------------------------
 Center     Atomic      Atomic             Coordinates (Angstroms)
 Number     Number       Type             X           Y           Z
 ---------------------------------------------------------------------
      1          8           0        0.022901    0.000000    0.026249
      2          8           0       -0.022901    0.000000    1.427061
      3          1           0        0.958879    0.000000   -0.119688
      4          1           0       -0.958879    0.000000    1.572998
 ---------------------------------------------------------------------
                    Distance matrix (angstroms):
                    1          2          3          4
     1  O    0.000000
     2  O    1.401561   0.000000
     3  H    0.947287   1.832028   0.000000
     4  H    1.832028   0.947287   2.557927   0.000000
 Symmetry turned off by external request.
 Stoichiometry    H2O2
 Framework group  C2H[SGH(H2O2)]
 Deg. of freedom     3
 Full point group                 C2H     NOp   4
 Rotational constants (GHZ):    321.2093817     28.9885825     26.5889743
 Leave Link  202 at Thu Oct  7 01:18:21 2021, MaxMem=    33554432 cpu:         0.0
 (Enter /apps/gaussian/g09/amd-sse4a/l601.exe)
 Copying SCF densities to generalized density rwf, IOpCl= 0 IROHF=0.

 **********************************************************************

            Population analysis using the SCF density.

 **********************************************************************

 Alpha  occ. eigenvalues --  -20.61475 -20.61442  -1.49328  -1.20466  -0.72957
 Alpha  occ. eigenvalues --   -0.68154  -0.63038  -0.53425  -0.43977
 Alpha virt. eigenvalues --    0.19596   0.20154   0.33948   0.82253   0.84601
 Alpha virt. eigenvalues --    1.08904   1.11469   1.15144   1.24839   1.25721
 Alpha virt. eigenvalues --    1.34777   1.53747   1.56152   1.58390   1.75589
 Alpha virt. eigenvalues --    1.92550   2.10068   2.43779   2.51026   2.59182
 Alpha virt. eigenvalues --    2.79973   2.98345   3.23368   3.33645   3.43311
 Alpha virt. eigenvalues --    3.63536   3.94413   3.95465   4.30921
          Condensed to atoms (all electrons):
               1          2          3          4
     1  O    7.754426   0.101527   0.365069  -0.029169
     2  O    0.101527   7.754426  -0.029169   0.365069
     3  H    0.365069  -0.029169   0.469563   0.002684
     4  H   -0.029169   0.365069   0.002684   0.469563
 Mulliken charges:
               1
     1  O   -0.191853
     2  O   -0.191853
     3  H    0.191853
     4  H    0.191853
 Sum of Mulliken charges =   0.00000
 Mulliken charges with hydrogens summed into heavy atoms:
               1
     1  O    0.000000
     2  O    0.000000
 Electronic spatial extent (au):  <R**2>=             96.9855
 Charge=              0.0000 electrons
 Dipole moment (field-independent basis, Debye):
    X=              0.0000    Y=              0.0000    Z=              0.0000  Tot=              0.0000
 Quadrupole moment (field-independent basis, Debye-Ang):
   XX=             -7.5891   YY=            -12.3404   ZZ=            -11.4125
   XY=              0.0000   XZ=             -3.4740   YZ=              0.0000
 Traceless Quadrupole moment (field-independent basis, Debye-Ang):
   XX=              2.8582   YY=             -1.8931   ZZ=             -0.9652
   XY=              0.0000   XZ=             -3.4740   YZ=              0.0000
 Octapole moment (field-independent basis, Debye-Ang**2):
  XXX=              0.0000  YYY=              0.0000  ZZZ=            -24.8789  XYY=              0.0000
  XXY=              0.0000  XXZ=             -5.5147  XZZ=             -5.0488  YZZ=              0.0000
  YYZ=             -8.9672  XYZ=              0.0000
 Hexadecapole moment (field-independent basis, Debye-Ang**3):
 XXXX=             -7.1950 YYYY=             -8.3875 ZZZZ=            -76.8206 XXXY=              0.0000
 XXXZ=             -1.1684 YYYX=              0.0000 YYYZ=              0.0000 ZZZX=             -6.2114
 ZZZY=              0.0000 XXYY=             -3.3659 XXZZ=            -10.4564 YYZZ=            -15.7757
 XXYZ=              0.0000 YYXZ=              0.7675 ZZXY=              0.0000
 N-N= 3.793043425928D+01 E-N=-4.343829510587D+02  KE= 1.508365080203D+02
 No NMR shielding tensors so no spin-rotation constants.
 Leave Link  601 at Thu Oct  7 01:18:22 2021, MaxMem=    33554432 cpu:         0.1
 (Enter /apps/gaussian/g09/amd-sse4a/l9999.exe)
 1\1\GINC-C0700A-S1\POpt\RHF\CC-pVDZ\H2O2\LE.CHEN\07-Oct-2021\0\\#P hf/
 cc-pvdz Opt=z-matrix nosymm\\Title\\0,1\O,0.0229012202,0.,0.0262487107
 \O,-0.0229012202,0.,1.4270612893\H,0.958879498,0.,-0.1196884944\H,-0.9
 58879498,0.,1.5729984944\\Version=AS64L-G09RevD.01\HF=-150.7854115\RMS
 D=6.283e-09\RMSF=7.084e-05\Dipole=0.,0.,0.\Quadrupole=2.1250315,-1.407
 4484,-0.7175832,0.,-2.5828196,0.\PG=C02H [SGH(H2O2)]\\@


 I DO NOT KNOW WHAT I MAY APPEAR TO THE WORLD; BUT TO MYSELF
 I SEEM TO HAVE BEEN ONLY LIKE A BOY PLAYING ON THE SEASHORE,
 AND DIVERTING MYSELF IN NOW AND THEN FINDING A SMOOTHER PEBBLE
 OR A PRETTIER SHELL THAN ORDINARY, WHILST THE GREAT OCEAN OF
 TRUTH LAY ALL UNDISCOVERED BEFORE ME.
                                          -- NEWTON (1642-1726)
 Job cpu time:       0 days  0 hours  0 minutes  2.5 seconds.
 File lengths (MBytes):  RWF=      5 Int=      0 D2E=      0 Chk=      1 Scr=      1
 Normal termination of Gaussian 09 at Thu Oct  7 01:18:22 2021.
