 Entering Gaussian System, Link 0=g09
 Initial command:
 /apps/gaussian/g09/amd-sse4a/l1.exe "/blue/chm6586/le.chen/hw3/q2/Gau-75641.inp" -scrdir="/blue/chm6586/le.chen/hw3/q2/"
 Entering Link 1 = /apps/gaussian/g09/amd-sse4a/l1.exe PID=     75642.
  
 Copyright (c) 1988,1990,1992,1993,1995,1998,2003,2009,2013,
            Gaussian, Inc.  All Rights Reserved.
  
 This is part of the Gaussian(R) 09 program.  It is based on
 the Gaussian(R) 03 system (copyright 2003, Gaussian, Inc.),
 the Gaussian(R) 98 system (copyright 1998, Gaussian, Inc.),
 the Gaussian(R) 94 system (copyright 1995, Gaussian, Inc.),
 the Gaussian 92(TM) system (copyright 1992, Gaussian, Inc.),
 the Gaussian 90(TM) system (copyright 1990, Gaussian, Inc.),
 the Gaussian 88(TM) system (copyright 1988, Gaussian, Inc.),
 the Gaussian 86(TM) system (copyright 1986, Carnegie Mellon
 University), and the Gaussian 82(TM) system (copyright 1983,
 Carnegie Mellon University). Gaussian is a federally registered
 trademark of Gaussian, Inc.
  
 This software contains proprietary and confidential information,
 including trade secrets, belonging to Gaussian, Inc.
  
 This software is provided under written license and may be
 used, copied, transmitted, or stored only in accord with that
 written license.
  
 The following legend is applicable only to US Government
 contracts under FAR:
  
                    RESTRICTED RIGHTS LEGEND
  
 Use, reproduction and disclosure by the US Government is
 subject to restrictions as set forth in subparagraphs (a)
 and (c) of the Commercial Computer Software - Restricted
 Rights clause in FAR 52.227-19.
  
 Gaussian, Inc.
 340 Quinnipiac St., Bldg. 40, Wallingford CT 06492
  
  
 ---------------------------------------------------------------
 Warning -- This program may not be used in any manner that
 competes with the business of Gaussian, Inc. or will provide
 assistance to any competitor of Gaussian, Inc.  The licensee
 of this program is prohibited from giving any competitor of
 Gaussian, Inc. access to this program.  By using this program,
 the user acknowledges that Gaussian, Inc. is engaged in the
 business of creating and licensing software in the field of
 computational chemistry and represents and warrants to the
 licensee that it is not a competitor of Gaussian, Inc. and that
 it will not use this program in any manner prohibited above.
 ---------------------------------------------------------------
  

 Cite this work as:
 Gaussian 09, Revision D.01,
 M. J. Frisch, G. W. Trucks, H. B. Schlegel, G. E. Scuseria, 
 M. A. Robb, J. R. Cheeseman, G. Scalmani, V. Barone, B. Mennucci, 
 G. A. Petersson, H. Nakatsuji, M. Caricato, X. Li, H. P. Hratchian, 
 A. F. Izmaylov, J. Bloino, G. Zheng, J. L. Sonnenberg, M. Hada, 
 M. Ehara, K. Toyota, R. Fukuda, J. Hasegawa, M. Ishida, T. Nakajima, 
 Y. Honda, O. Kitao, H. Nakai, T. Vreven, J. A. Montgomery, Jr., 
 J. E. Peralta, F. Ogliaro, M. Bearpark, J. J. Heyd, E. Brothers, 
 K. N. Kudin, V. N. Staroverov, T. Keith, R. Kobayashi, J. Normand, 
 K. Raghavachari, A. Rendell, J. C. Burant, S. S. Iyengar, J. Tomasi, 
 M. Cossi, N. Rega, J. M. Millam, M. Klene, J. E. Knox, J. B. Cross, 
 V. Bakken, C. Adamo, J. Jaramillo, R. Gomperts, R. E. Stratmann, 
 O. Yazyev, A. J. Austin, R. Cammi, C. Pomelli, J. W. Ochterski, 
 R. L. Martin, K. Morokuma, V. G. Zakrzewski, G. A. Voth, 
 P. Salvador, J. J. Dannenberg, S. Dapprich, A. D. Daniels, 
 O. Farkas, J. B. Foresman, J. V. Ortiz, J. Cioslowski, 
 and D. J. Fox, Gaussian, Inc., Wallingford CT, 2013.
 
 ******************************************
 Gaussian 09:  AS64L-G09RevD.01 24-Apr-2013
                 7-Oct-2021 
 ******************************************
 -----------------------------------
 # scan hf/cc-pvdz geom=connectivity
 -----------------------------------
 1/38=1,57=2,60=1/1,8;
 2/12=2,17=6,18=5,29=3,40=1/2;
 3/5=16,11=9,16=1,25=1,30=1/1,2,3;
 4//1;
 5/5=2,38=5/2;
 6/7=2,8=2,9=2,10=2,18=1,28=1/1;
 1/60=1/8(1);
 99/9=1/99;
 2/29=3/2;
 3/5=16,11=9,16=1,25=1,30=1/1,2,3;
 4/5=5,16=3,69=1/1;
 5/5=2,38=5/2;
 1/60=1/8(-4);
 99/9=1/99;
 -----
 Title
 -----
 Symbolic Z-matrix:
 Charge =  0 Multiplicity = 1
 O
 O                    1    B1
 H                    1    B2       2    A2
 H                    2    B3       1    A3       3    D3       0
       Variables:
  B1                    1.4016                   
  B2                    0.9474                   
  A2                  100.7334                   
  B3                    0.9474                   
  A3                  100.7334                   
  D3                  180.     Scan 72    5.     
 
 Scan the potential surface.
 Variable   Value     No. Steps Step-Size
 -------- ----------- --------- ---------
     6     180.000000      72      5.0000
 A total of     73 points will be computed.
 ---------------------------------------------------------------------------------------------------
                            Z-MATRIX (ANGSTROMS AND DEGREES)
   CD    Cent   Atom    N1       Length/X        N2       Alpha/Y        N3        Beta/Z          J
 ---------------------------------------------------------------------------------------------------
      1      1  O 
      2      2  O        1   1.401600(     1)
      3      3  H        1   0.947400(     2)      2  100.733(     4)
      4      4  H        2   0.947400(     3)      1  100.733(     5)      3  180.000(     6)      0
 ---------------------------------------------------------------------------------------------------
                         Z-Matrix orientation:                         
 ---------------------------------------------------------------------
 Center     Atomic      Atomic             Coordinates (Angstroms)
 Number     Number       Type             X           Y           Z
 ---------------------------------------------------------------------
      1          8           0        0.000000    0.000000    0.000000
      2          8           0        0.000000    0.000000    1.401600
      3          1           0        0.930825    0.000000   -0.176443
      4          1           0       -0.930825    0.000000    1.578043
 ---------------------------------------------------------------------
                    Distance matrix (angstroms):
                    1          2          3          4
     1  O    0.000000
     2  O    1.401600   0.000000
     3  H    0.947400   1.832118   0.000000
     4  H    1.832118   0.947400   2.558117   0.000000
 Stoichiometry    H2O2
 Framework group  C2H[SGH(H2O2)]
 Deg. of freedom     3
 Full point group                 C2H     NOp   4
 Largest Abelian subgroup         C2H     NOp   4
 Largest concise Abelian subgroup C2      NOp   2
                         Standard orientation:                         
 ---------------------------------------------------------------------
 Center     Atomic      Atomic             Coordinates (Angstroms)
 Number     Number       Type             X           Y           Z
 ---------------------------------------------------------------------
      1          8           0        0.000000    0.700800    0.000000
      2          8           0        0.000000   -0.700800    0.000000
      3          1           0        0.930825    0.877243    0.000000
      4          1           0       -0.930825   -0.877243    0.000000
 ---------------------------------------------------------------------
 Rotational constants (GHZ):    321.1297637     28.9869698     26.5870719
 Standard basis: CC-pVDZ (5D, 7F)
 There are    15 symmetry adapted cartesian basis functions of AG  symmetry.
 There are     5 symmetry adapted cartesian basis functions of BG  symmetry.
 There are     5 symmetry adapted cartesian basis functions of AU  symmetry.
 There are    15 symmetry adapted cartesian basis functions of BU  symmetry.
 There are    14 symmetry adapted basis functions of AG  symmetry.
 There are     5 symmetry adapted basis functions of BG  symmetry.
 There are     5 symmetry adapted basis functions of AU  symmetry.
 There are    14 symmetry adapted basis functions of BU  symmetry.
    38 basis functions,    80 primitive gaussians,    40 cartesian basis functions
     9 alpha electrons        9 beta electrons
       nuclear repulsion energy        37.9284604367 Hartrees.
 NAtoms=    4 NActive=    4 NUniq=    2 SFac= 4.00D+00 NAtFMM=   60 NAOKFM=F Big=F
 Integral buffers will be    131072 words long.
 Raffenetti 1 integral format.
 Two-electron integral symmetry is turned on.
 One-electron integrals computed using PRISM.
 NBasis=    38 RedAO= T EigKep=  2.17D-02  NBF=    14     5     5    14
 NBsUse=    38 1.00D-06 EigRej= -1.00D+00 NBFU=    14     5     5    14
 ExpMin= 1.22D-01 ExpMax= 1.17D+04 ExpMxC= 4.01D+02 IAcc=1 IRadAn=         1 AccDes= 0.00D+00
 Harris functional with IExCor=  205 and IRadAn=       1 diagonalized for initial guess.
 HarFok:  IExCor=  205 AccDes= 0.00D+00 IRadAn=         1 IDoV= 1 UseB2=F ITyADJ=14
 ICtDFT=  3500011 ScaDFX=  1.000000  1.000000  1.000000  1.000000
 FoFCou: FMM=F IPFlag=           0 FMFlag=      100000 FMFlg1=           0
         NFxFlg=           0 DoJE=T BraDBF=F KetDBF=T FulRan=T
         wScrn=  0.000000 ICntrl=     500 IOpCl=  0 I1Cent=   200000004 NGrid=           0
         NMat0=    1 NMatS0=      1 NMatT0=    0 NMatD0=    1 NMtDS0=    0 NMtDT0=    0
 Petite list used in FoFCou.
 Initial guess orbital symmetries:
       Occupied  (BU) (AG) (AG) (BU) (AG) (BU) (AU) (AG) (BG)
       Virtual   (BU) (AG) (BU) (AG) (BU) (BU) (AU) (AG) (BG) (BU)
                 (AG) (BG) (BU) (AU) (AG) (AG) (BU) (AG) (BU) (AU)
                 (AG) (BU) (BG) (AU) (BG) (AG) (AG) (BU) (BU)
 The electronic state of the initial guess is 1-AG.
 Keep R1 ints in memory in symmetry-blocked form, NReq=1143397.
 Requested convergence on RMS density matrix=1.00D-08 within 128 cycles.
 Requested convergence on MAX density matrix=1.00D-06.
 Requested convergence on             energy=1.00D-06.
 No special actions if energy rises.
 SCF Done:  E(RHF) =  -150.785411395     A.U. after   10 cycles
            NFock= 10  Conv=0.20D-08     -V/T= 1.9997

 **********************************************************************

            Population analysis using the SCF density.

 **********************************************************************

 Orbital symmetries:
       Occupied  (AG) (BU) (AG) (BU) (BU) (AG) (AU) (AG) (BG)
       Virtual   (AG) (BU) (BU) (BU) (AG) (AG) (BU) (AU) (BU) (BG)
                 (AG) (BG) (AU) (BU) (AG) (AG) (BU) (AG) (BU) (AU)
                 (AG) (BU) (BG) (AU) (BG) (AG) (AG) (BU) (BU)
 The electronic state is 1-AG.
 Alpha  occ. eigenvalues --  -20.61476 -20.61443  -1.49324  -1.20462  -0.72954
 Alpha  occ. eigenvalues --   -0.68149  -0.63036  -0.53424  -0.43977
 Alpha virt. eigenvalues --    0.19594   0.20152   0.33945   0.82243   0.84591
 Alpha virt. eigenvalues --    1.08905   1.11470   1.15143   1.24841   1.25721
 Alpha virt. eigenvalues --    1.34778   1.53746   1.56149   1.58388   1.75588
 Alpha virt. eigenvalues --    1.92547   2.10070   2.43754   2.50997   2.59185
 Alpha virt. eigenvalues --    2.79968   2.98336   3.23357   3.33634   3.43307
 Alpha virt. eigenvalues --    3.63526   3.94396   3.95459   4.30911
          Condensed to atoms (all electrons):
               1          2          3          4
     1  O    7.754547   0.101521   0.365027  -0.029168
     2  O    0.101521   7.754547  -0.029168   0.365027
     3  H    0.365027  -0.029168   0.469530   0.002684
     4  H   -0.029168   0.365027   0.002684   0.469530
 Mulliken charges:
               1
     1  O   -0.191927
     2  O   -0.191927
     3  H    0.191927
     4  H    0.191927
 Sum of Mulliken charges =   0.00000
 Mulliken charges with hydrogens summed into heavy atoms:
               1
     1  O    0.000000
     2  O    0.000000
 Electronic spatial extent (au):  <R**2>=             63.0476
 Charge=              0.0000 electrons
 Dipole moment (field-independent basis, Debye):
    X=              0.0000    Y=              0.0000    Z=              0.0000  Tot=              0.0000
 Quadrupole moment (field-independent basis, Debye-Ang):
   XX=             -7.8195   YY=            -11.1817   ZZ=            -12.3407
   XY=              3.5917   XZ=              0.0000   YZ=              0.0000
 Traceless Quadrupole moment (field-independent basis, Debye-Ang):
   XX=              2.6278   YY=             -0.7344   ZZ=             -1.8934
   XY=              3.5917   XZ=              0.0000   YZ=              0.0000
 Octapole moment (field-independent basis, Debye-Ang**2):
  XXX=              0.0000  YYY=              0.0000  ZZZ=              0.0000  XYY=              0.0000
  XXY=              0.0000  XXZ=              0.0000  XZZ=              0.0000  YZZ=              0.0000
  YYZ=              0.0000  XYZ=              0.0000
 Hexadecapole moment (field-independent basis, Debye-Ang**3):
 XXXX=             -7.3734 YYYY=            -40.5285 ZZZZ=             -8.3878 XXXY=              1.5623
 XXXZ=              0.0000 YYYX=              1.4038 YYYZ=              0.0000 ZZZX=              0.0000
 ZZZY=              0.0000 XXYY=             -6.4289 XXZZ=             -3.3224 YYZZ=             -9.3041
 XXYZ=              0.0000 YYXZ=              0.0000 ZZXY=             -0.5736
 N-N= 3.792846043670D+01 E-N=-4.343788355138D+02  KE= 1.508359774132D+02
 Symmetry AG   KE= 7.277958996190D+01
 Symmetry BG   KE= 5.405041342591D+00
 Symmetry AU   KE= 4.357935201854D+00
 Symmetry BU   KE= 6.829341090688D+01
 Variable Step   Value    
 -------- ---- -----------
     6       1    3.228859
 ---------------------------------------------------------------------------------------------------
                            Z-MATRIX (ANGSTROMS AND DEGREES)
   CD    Cent   Atom    N1       Length/X        N2       Alpha/Y        N3        Beta/Z          J
 ---------------------------------------------------------------------------------------------------
      1      1  O 
      2      2  O        1   1.401600(     1)
      3      3  H        1   0.947400(     2)      2  100.733(     4)
      4      4  H        2   0.947400(     3)      1  100.733(     5)      3  185.000(     6)      0
 ---------------------------------------------------------------------------------------------------
                         Z-Matrix orientation:                         
 ---------------------------------------------------------------------
 Center     Atomic      Atomic             Coordinates (Angstroms)
 Number     Number       Type             X           Y           Z
 ---------------------------------------------------------------------
      1          8           0        0.000000    0.000000    0.000000
      2          8           0        0.000000    0.000000    1.401600
      3          1           0        0.930825    0.000000   -0.176443
      4          1           0       -0.927283   -0.081127    1.578043
 ---------------------------------------------------------------------
                    Distance matrix (angstroms):
                    1          2          3          4
     1  O    0.000000
     2  O    1.401600   0.000000
     3  H    0.947400   1.832118   0.000000
     4  H    1.832118   0.947400   2.556827   0.000000
 Stoichiometry    H2O2
 Framework group  C2[X(H2O2)]
 Deg. of freedom     4
 Full point group                 C2      NOp   2
 Omega: Change in point group or standard orientation.

 Old FWG=C02H [SGH(H2O2)]
 New FWG=C02  [X(H2O2)]
 Largest Abelian subgroup         C2      NOp   2
 Largest concise Abelian subgroup C2      NOp   2
                         Standard orientation:                         
 ---------------------------------------------------------------------
 Center     Atomic      Atomic             Coordinates (Angstroms)
 Number     Number       Type             X           Y           Z
 ---------------------------------------------------------------------
      1          8           0        0.000000    0.700800    0.004511
      2          8           0        0.000000   -0.700800    0.004511
      3          1           0        0.929939    0.877243   -0.036091
      4          1           0       -0.929939   -0.877243   -0.036091
 ---------------------------------------------------------------------
 Rotational constants (GHZ):    321.0962793     28.9823738     26.5917204
 Standard basis: CC-pVDZ (5D, 7F)
 There are    20 symmetry adapted cartesian basis functions of A   symmetry.
 There are    20 symmetry adapted cartesian basis functions of B   symmetry.
 There are    19 symmetry adapted basis functions of A   symmetry.
 There are    19 symmetry adapted basis functions of B   symmetry.
    38 basis functions,    80 primitive gaussians,    40 cartesian basis functions
     9 alpha electrons        9 beta electrons
       nuclear repulsion energy        37.9285647389 Hartrees.
 NAtoms=    4 NActive=    4 NUniq=    2 SFac= 4.00D+00 NAtFMM=   60 NAOKFM=F Big=F
 Integral buffers will be    131072 words long.
 Raffenetti 1 integral format.
 Two-electron integral symmetry is turned on.
 One-electron integrals computed using PRISM.
 NBasis=    38 RedAO= T EigKep=  1.54D-02  NBF=    19    19
 NBsUse=    38 1.00D-06 EigRej= -1.00D+00 NBFU=    19    19
 Initial guess from the checkpoint file:  "/blue/chm6586/le.chen/hw3/q2/Gau-75642.chk"
 B after Tr=     0.000000    0.000000    0.000000
         Rot=    1.000000    0.000000    0.000000   -0.000070 Ang=  -0.01 deg.
 Initial guess orbital symmetries:
       Occupied  (A) (B) (A) (B) (B) (A) (A) (A) (B)
       Virtual   (A) (A) (A) (A) (A) (A) (A) (A) (A) (A) (A) (A)
                 (A) (A) (B) (B) (B) (B) (B) (B) (B) (B) (B) (B)
                 (B) (B) (B) (B) (B)
 ExpMin= 1.22D-01 ExpMax= 1.17D+04 ExpMxC= 4.01D+02 IAcc=1 IRadAn=         1 AccDes= 0.00D+00
 Harris functional with IExCor=  205 and IRadAn=       1 diagonalized for initial guess.
 HarFok:  IExCor=  205 AccDes= 0.00D+00 IRadAn=         1 IDoV= 1 UseB2=F ITyADJ=14
 ICtDFT=  3500011 ScaDFX=  1.000000  1.000000  1.000000  1.000000
 FoFCou: FMM=F IPFlag=           0 FMFlag=      100000 FMFlg1=           0
         NFxFlg=           0 DoJE=T BraDBF=F KetDBF=T FulRan=T
         wScrn=  0.000000 ICntrl=     500 IOpCl=  0 I1Cent=   200000004 NGrid=           0
         NMat0=    1 NMatS0=      1 NMatT0=    0 NMatD0=    1 NMtDS0=    0 NMtDT0=    0
 Petite list used in FoFCou.
 Keep R1 ints in memory in symmetry-blocked form, NReq=1142897.
 Requested convergence on RMS density matrix=1.00D-08 within 128 cycles.
 Requested convergence on MAX density matrix=1.00D-06.
 Requested convergence on             energy=1.00D-06.
 No special actions if energy rises.
 SCF Done:  E(RHF) =  -150.785427757     A.U. after   10 cycles
            NFock= 10  Conv=0.22D-08     -V/T= 1.9997
 Variable Step   Value    
 -------- ---- -----------
     6       2    3.316126
 ---------------------------------------------------------------------------------------------------
                            Z-MATRIX (ANGSTROMS AND DEGREES)
   CD    Cent   Atom    N1       Length/X        N2       Alpha/Y        N3        Beta/Z          J
 ---------------------------------------------------------------------------------------------------
      1      1  O 
      2      2  O        1   1.401600(     1)
      3      3  H        1   0.947400(     2)      2  100.733(     4)
      4      4  H        2   0.947400(     3)      1  100.733(     5)      3  190.000(     6)      0
 ---------------------------------------------------------------------------------------------------
                         Z-Matrix orientation:                         
 ---------------------------------------------------------------------
 Center     Atomic      Atomic             Coordinates (Angstroms)
 Number     Number       Type             X           Y           Z
 ---------------------------------------------------------------------
      1          8           0        0.000000    0.000000    0.000000
      2          8           0        0.000000    0.000000    1.401600
      3          1           0        0.930825    0.000000   -0.176443
      4          1           0       -0.916683   -0.161636    1.578043
 ---------------------------------------------------------------------
                    Distance matrix (angstroms):
                    1          2          3          4
     1  O    0.000000
     2  O    1.401600   0.000000
     3  H    0.947400   1.832118   0.000000
     4  H    1.832118   0.947400   2.552966   0.000000
 Stoichiometry    H2O2
 Framework group  C2[X(H2O2)]
 Deg. of freedom     4
 Full point group                 C2      NOp   2
 Largest Abelian subgroup         C2      NOp   2
 Largest concise Abelian subgroup C2      NOp   2
                         Standard orientation:                         
 ---------------------------------------------------------------------
 Center     Atomic      Atomic             Coordinates (Angstroms)
 Number     Number       Type             X           Y           Z
 ---------------------------------------------------------------------
      1          8           0        0.000000    0.700800    0.009014
      2          8           0        0.000000   -0.700800    0.009014
      3          1           0        0.927283    0.877243   -0.072113
      4          1           0       -0.927283   -0.877243   -0.072113
 ---------------------------------------------------------------------
 Rotational constants (GHZ):    320.9962867     28.9686280     26.6056401
 Standard basis: CC-pVDZ (5D, 7F)
 There are    20 symmetry adapted cartesian basis functions of A   symmetry.
 There are    20 symmetry adapted cartesian basis functions of B   symmetry.
 There are    19 symmetry adapted basis functions of A   symmetry.
 There are    19 symmetry adapted basis functions of B   symmetry.
    38 basis functions,    80 primitive gaussians,    40 cartesian basis functions
     9 alpha electrons        9 beta electrons
       nuclear repulsion energy        37.9288777966 Hartrees.
 NAtoms=    4 NActive=    4 NUniq=    2 SFac= 4.00D+00 NAtFMM=   60 NAOKFM=F Big=F
 Integral buffers will be    131072 words long.
 Raffenetti 1 integral format.
 Two-electron integral symmetry is turned on.
 One-electron integrals computed using PRISM.
 NBasis=    38 RedAO= T EigKep=  1.54D-02  NBF=    19    19
 NBsUse=    38 1.00D-06 EigRej= -1.00D+00 NBFU=    19    19
 Initial guess from the checkpoint file:  "/blue/chm6586/le.chen/hw3/q2/Gau-75642.chk"
 B after Tr=     0.000000    0.000000    0.000000
         Rot=    1.000000    0.000000    0.000000   -0.000210 Ang=  -0.02 deg.
 Initial guess orbital symmetries:
       Occupied  (A) (B) (A) (B) (B) (A) (A) (A) (B)
       Virtual   (A) (A) (A) (A) (A) (A) (A) (A) (A) (A) (A) (A)
                 (A) (A) (B) (B) (B) (B) (B) (B) (B) (B) (B) (B)
                 (B) (B) (B) (B) (B)
 ExpMin= 1.22D-01 ExpMax= 1.17D+04 ExpMxC= 4.01D+02 IAcc=1 IRadAn=         1 AccDes= 0.00D+00
 Harris functional with IExCor=  205 and IRadAn=       1 diagonalized for initial guess.
 HarFok:  IExCor=  205 AccDes= 0.00D+00 IRadAn=         1 IDoV= 1 UseB2=F ITyADJ=14
 ICtDFT=  3500011 ScaDFX=  1.000000  1.000000  1.000000  1.000000
 FoFCou: FMM=F IPFlag=           0 FMFlag=      100000 FMFlg1=           0
         NFxFlg=           0 DoJE=T BraDBF=F KetDBF=T FulRan=T
         wScrn=  0.000000 ICntrl=     500 IOpCl=  0 I1Cent=   200000004 NGrid=           0
         NMat0=    1 NMatS0=      1 NMatT0=    0 NMatD0=    1 NMtDS0=    0 NMtDT0=    0
 Petite list used in FoFCou.
 Keep R1 ints in memory in symmetry-blocked form, NReq=1142897.
 Requested convergence on RMS density matrix=1.00D-08 within 128 cycles.
 Requested convergence on MAX density matrix=1.00D-06.
 Requested convergence on             energy=1.00D-06.
 No special actions if energy rises.
 SCF Done:  E(RHF) =  -150.785476103     A.U. after   10 cycles
            NFock= 10  Conv=0.23D-08     -V/T= 1.9997
 Variable Step   Value    
 -------- ---- -----------
     6       3    3.403392
 ---------------------------------------------------------------------------------------------------
                            Z-MATRIX (ANGSTROMS AND DEGREES)
   CD    Cent   Atom    N1       Length/X        N2       Alpha/Y        N3        Beta/Z          J
 ---------------------------------------------------------------------------------------------------
      1      1  O 
      2      2  O        1   1.401600(     1)
      3      3  H        1   0.947400(     2)      2  100.733(     4)
      4      4  H        2   0.947400(     3)      1  100.733(     5)      3  195.000(     6)      0
 ---------------------------------------------------------------------------------------------------
                         Z-Matrix orientation:                         
 ---------------------------------------------------------------------
 Center     Atomic      Atomic             Coordinates (Angstroms)
 Number     Number       Type             X           Y           Z
 ---------------------------------------------------------------------
      1          8           0        0.000000    0.000000    0.000000
      2          8           0        0.000000    0.000000    1.401600
      3          1           0        0.930825    0.000000   -0.176443
      4          1           0       -0.899108   -0.240915    1.578043
 ---------------------------------------------------------------------
                    Distance matrix (angstroms):
                    1          2          3          4
     1  O    0.000000
     2  O    1.401600   0.000000
     3  H    0.947400   1.832118   0.000000
     4  H    1.832118   0.947400   2.546550   0.000000
 Stoichiometry    H2O2
 Framework group  C2[X(H2O2)]
 Deg. of freedom     4
 Full point group                 C2      NOp   2
 Largest Abelian subgroup         C2      NOp   2
 Largest concise Abelian subgroup C2      NOp   2
                         Standard orientation:                         
 ---------------------------------------------------------------------
 Center     Atomic      Atomic             Coordinates (Angstroms)
 Number     Number       Type             X           Y           Z
 ---------------------------------------------------------------------
      1          8           0        0.000000    0.700800    0.013500
      2          8           0        0.000000   -0.700800    0.013500
      3          1           0        0.922861    0.877243   -0.107997
      4          1           0       -0.922861   -0.877243   -0.107997
 ---------------------------------------------------------------------
 Rotational constants (GHZ):    320.8311563     28.9458588     26.6287541
 Standard basis: CC-pVDZ (5D, 7F)
 There are    20 symmetry adapted cartesian basis functions of A   symmetry.
 There are    20 symmetry adapted cartesian basis functions of B   symmetry.
 There are    19 symmetry adapted basis functions of A   symmetry.
 There are    19 symmetry adapted basis functions of B   symmetry.
    38 basis functions,    80 primitive gaussians,    40 cartesian basis functions
     9 alpha electrons        9 beta electrons
       nuclear repulsion energy        37.9294000570 Hartrees.
 NAtoms=    4 NActive=    4 NUniq=    2 SFac= 4.00D+00 NAtFMM=   60 NAOKFM=F Big=F
 Integral buffers will be    131072 words long.
 Raffenetti 1 integral format.
 Two-electron integral symmetry is turned on.
 One-electron integrals computed using PRISM.
 NBasis=    38 RedAO= T EigKep=  1.54D-02  NBF=    19    19
 NBsUse=    38 1.00D-06 EigRej= -1.00D+00 NBFU=    19    19
 Initial guess from the checkpoint file:  "/blue/chm6586/le.chen/hw3/q2/Gau-75642.chk"
 B after Tr=     0.000000    0.000000    0.000000
         Rot=    1.000000    0.000000    0.000000   -0.000349 Ang=  -0.04 deg.
 Initial guess orbital symmetries:
       Occupied  (A) (B) (A) (B) (B) (A) (A) (A) (B)
       Virtual   (A) (A) (A) (A) (A) (A) (A) (A) (A) (A) (A) (A)
                 (A) (A) (B) (B) (B) (B) (B) (B) (B) (B) (B) (B)
                 (B) (B) (B) (B) (B)
 ExpMin= 1.22D-01 ExpMax= 1.17D+04 ExpMxC= 4.01D+02 IAcc=1 IRadAn=         1 AccDes= 0.00D+00
 Harris functional with IExCor=  205 and IRadAn=       1 diagonalized for initial guess.
 HarFok:  IExCor=  205 AccDes= 0.00D+00 IRadAn=         1 IDoV= 1 UseB2=F ITyADJ=14
 ICtDFT=  3500011 ScaDFX=  1.000000  1.000000  1.000000  1.000000
 FoFCou: FMM=F IPFlag=           0 FMFlag=      100000 FMFlg1=           0
         NFxFlg=           0 DoJE=T BraDBF=F KetDBF=T FulRan=T
         wScrn=  0.000000 ICntrl=     500 IOpCl=  0 I1Cent=   200000004 NGrid=           0
         NMat0=    1 NMatS0=      1 NMatT0=    0 NMatD0=    1 NMtDS0=    0 NMtDT0=    0
 Petite list used in FoFCou.
 Keep R1 ints in memory in symmetry-blocked form, NReq=1142897.
 Requested convergence on RMS density matrix=1.00D-08 within 128 cycles.
 Requested convergence on MAX density matrix=1.00D-06.
 Requested convergence on             energy=1.00D-06.
 No special actions if energy rises.
 SCF Done:  E(RHF) =  -150.785554219     A.U. after   10 cycles
            NFock= 10  Conv=0.24D-08     -V/T= 1.9997
 Variable Step   Value    
 -------- ---- -----------
     6       4    3.490659
 ---------------------------------------------------------------------------------------------------
                            Z-MATRIX (ANGSTROMS AND DEGREES)
   CD    Cent   Atom    N1       Length/X        N2       Alpha/Y        N3        Beta/Z          J
 ---------------------------------------------------------------------------------------------------
      1      1  O 
      2      2  O        1   1.401600(     1)
      3      3  H        1   0.947400(     2)      2  100.733(     4)
      4      4  H        2   0.947400(     3)      1  100.733(     5)      3  200.000(     6)      0
 ---------------------------------------------------------------------------------------------------
                         Z-Matrix orientation:                         
 ---------------------------------------------------------------------
 Center     Atomic      Atomic             Coordinates (Angstroms)
 Number     Number       Type             X           Y           Z
 ---------------------------------------------------------------------
      1          8           0        0.000000    0.000000    0.000000
      2          8           0        0.000000    0.000000    1.401600
      3          1           0        0.930825    0.000000   -0.176443
      4          1           0       -0.874689   -0.318361    1.578043
 ---------------------------------------------------------------------
                    Distance matrix (angstroms):
                    1          2          3          4
     1  O    0.000000
     2  O    1.401600   0.000000
     3  H    0.947400   1.832118   0.000000
     4  H    1.832118   0.947400   2.537608   0.000000
 Stoichiometry    H2O2
 Framework group  C2[X(H2O2)]
 Deg. of freedom     4
 Full point group                 C2      NOp   2
 Largest Abelian subgroup         C2      NOp   2
 Largest concise Abelian subgroup C2      NOp   2
                         Standard orientation:                         
 ---------------------------------------------------------------------
 Center     Atomic      Atomic             Coordinates (Angstroms)
 Number     Number       Type             X           Y           Z
 ---------------------------------------------------------------------
      1          8           0        0.000000    0.700800    0.017960
      2          8           0        0.000000   -0.700800    0.017960
      3          1           0        0.916683    0.877243   -0.143676
      4          1           0       -0.916683   -0.877243   -0.143676
 ---------------------------------------------------------------------
 Rotational constants (GHZ):    320.6031333     28.9142753     26.6609337
 Standard basis: CC-pVDZ (5D, 7F)
 There are    20 symmetry adapted cartesian basis functions of A   symmetry.
 There are    20 symmetry adapted cartesian basis functions of B   symmetry.
 There are    19 symmetry adapted basis functions of A   symmetry.
 There are    19 symmetry adapted basis functions of B   symmetry.
    38 basis functions,    80 primitive gaussians,    40 cartesian basis functions
     9 alpha electrons        9 beta electrons
       nuclear repulsion energy        37.9301322449 Hartrees.
 NAtoms=    4 NActive=    4 NUniq=    2 SFac= 4.00D+00 NAtFMM=   60 NAOKFM=F Big=F
 Integral buffers will be    131072 words long.
 Raffenetti 1 integral format.
 Two-electron integral symmetry is turned on.
 One-electron integrals computed using PRISM.
 NBasis=    38 RedAO= T EigKep=  1.55D-02  NBF=    19    19
 NBsUse=    38 1.00D-06 EigRej= -1.00D+00 NBFU=    19    19
 Initial guess from the checkpoint file:  "/blue/chm6586/le.chen/hw3/q2/Gau-75642.chk"
 B after Tr=     0.000000    0.000000    0.000000
         Rot=    1.000000    0.000000    0.000000   -0.000489 Ang=  -0.06 deg.
 Initial guess orbital symmetries:
       Occupied  (A) (B) (A) (B) (B) (A) (A) (A) (B)
       Virtual   (A) (A) (A) (A) (A) (A) (A) (A) (A) (A) (A) (A)
                 (A) (A) (B) (B) (B) (B) (B) (B) (B) (B) (B) (B)
                 (B) (B) (B) (B) (B)
 ExpMin= 1.22D-01 ExpMax= 1.17D+04 ExpMxC= 4.01D+02 IAcc=1 IRadAn=         1 AccDes= 0.00D+00
 Harris functional with IExCor=  205 and IRadAn=       1 diagonalized for initial guess.
 HarFok:  IExCor=  205 AccDes= 0.00D+00 IRadAn=         1 IDoV= 1 UseB2=F ITyADJ=14
 ICtDFT=  3500011 ScaDFX=  1.000000  1.000000  1.000000  1.000000
 FoFCou: FMM=F IPFlag=           0 FMFlag=      100000 FMFlg1=           0
         NFxFlg=           0 DoJE=T BraDBF=F KetDBF=T FulRan=T
         wScrn=  0.000000 ICntrl=     500 IOpCl=  0 I1Cent=   200000004 NGrid=           0
         NMat0=    1 NMatS0=      1 NMatT0=    0 NMatD0=    1 NMtDS0=    0 NMtDT0=    0
 Petite list used in FoFCou.
 Keep R1 ints in memory in symmetry-blocked form, NReq=1142897.
 Requested convergence on RMS density matrix=1.00D-08 within 128 cycles.
 Requested convergence on MAX density matrix=1.00D-06.
 Requested convergence on             energy=1.00D-06.
 No special actions if energy rises.
 SCF Done:  E(RHF) =  -150.785658443     A.U. after   10 cycles
            NFock= 10  Conv=0.27D-08     -V/T= 1.9997
 Variable Step   Value    
 -------- ---- -----------
     6       5    3.577925
 ---------------------------------------------------------------------------------------------------
                            Z-MATRIX (ANGSTROMS AND DEGREES)
   CD    Cent   Atom    N1       Length/X        N2       Alpha/Y        N3        Beta/Z          J
 ---------------------------------------------------------------------------------------------------
      1      1  O 
      2      2  O        1   1.401600(     1)
      3      3  H        1   0.947400(     2)      2  100.733(     4)
      4      4  H        2   0.947400(     3)      1  100.733(     5)      3  205.000(     6)      0
 ---------------------------------------------------------------------------------------------------
                         Z-Matrix orientation:                         
 ---------------------------------------------------------------------
 Center     Atomic      Atomic             Coordinates (Angstroms)
 Number     Number       Type             X           Y           Z
 ---------------------------------------------------------------------
      1          8           0        0.000000    0.000000    0.000000
      2          8           0        0.000000    0.000000    1.401600
      3          1           0        0.930825    0.000000   -0.176443
      4          1           0       -0.843614   -0.393384    1.578043
 ---------------------------------------------------------------------
                    Distance matrix (angstroms):
                    1          2          3          4
     1  O    0.000000
     2  O    1.401600   0.000000
     3  H    0.947400   1.832118   0.000000
     4  H    1.832118   0.947400   2.526184   0.000000
 Stoichiometry    H2O2
 Framework group  C2[X(H2O2)]
 Deg. of freedom     4
 Full point group                 C2      NOp   2
 Largest Abelian subgroup         C2      NOp   2
 Largest concise Abelian subgroup C2      NOp   2
                         Standard orientation:                         
 ---------------------------------------------------------------------
 Center     Atomic      Atomic             Coordinates (Angstroms)
 Number     Number       Type             X           Y           Z
 ---------------------------------------------------------------------
      1          8           0        0.000000    0.700800    0.022385
      2          8           0        0.000000   -0.700800    0.022385
      3          1           0        0.908760    0.877243   -0.179082
      4          1           0       -0.908760   -0.877243   -0.179082
 ---------------------------------------------------------------------
 Rotational constants (GHZ):    320.3152822     28.8741659     26.7019988
 Standard basis: CC-pVDZ (5D, 7F)
 There are    20 symmetry adapted cartesian basis functions of A   symmetry.
 There are    20 symmetry adapted cartesian basis functions of B   symmetry.
 There are    19 symmetry adapted basis functions of A   symmetry.
 There are    19 symmetry adapted basis functions of B   symmetry.
    38 basis functions,    80 primitive gaussians,    40 cartesian basis functions
     9 alpha electrons        9 beta electrons
       nuclear repulsion energy        37.9310753296 Hartrees.
 NAtoms=    4 NActive=    4 NUniq=    2 SFac= 4.00D+00 NAtFMM=   60 NAOKFM=F Big=F
 Integral buffers will be    131072 words long.
 Raffenetti 1 integral format.
 Two-electron integral symmetry is turned on.
 One-electron integrals computed using PRISM.
 NBasis=    38 RedAO= T EigKep=  1.55D-02  NBF=    19    19
 NBsUse=    38 1.00D-06 EigRej= -1.00D+00 NBFU=    19    19
 Initial guess from the checkpoint file:  "/blue/chm6586/le.chen/hw3/q2/Gau-75642.chk"
 B after Tr=     0.000000    0.000000    0.000000
         Rot=    1.000000    0.000000    0.000000   -0.000628 Ang=  -0.07 deg.
 Initial guess orbital symmetries:
       Occupied  (A) (B) (A) (B) (B) (A) (A) (A) (B)
       Virtual   (A) (A) (A) (A) (A) (A) (A) (A) (A) (A) (A) (A)
                 (A) (A) (B) (B) (B) (B) (B) (B) (B) (B) (B) (B)
                 (B) (B) (B) (B) (B)
 ExpMin= 1.22D-01 ExpMax= 1.17D+04 ExpMxC= 4.01D+02 IAcc=1 IRadAn=         1 AccDes= 0.00D+00
 Harris functional with IExCor=  205 and IRadAn=       1 diagonalized for initial guess.
 HarFok:  IExCor=  205 AccDes= 0.00D+00 IRadAn=         1 IDoV= 1 UseB2=F ITyADJ=14
 ICtDFT=  3500011 ScaDFX=  1.000000  1.000000  1.000000  1.000000
 FoFCou: FMM=F IPFlag=           0 FMFlag=      100000 FMFlg1=           0
         NFxFlg=           0 DoJE=T BraDBF=F KetDBF=T FulRan=T
         wScrn=  0.000000 ICntrl=     500 IOpCl=  0 I1Cent=   200000004 NGrid=           0
         NMat0=    1 NMatS0=      1 NMatT0=    0 NMatD0=    1 NMtDS0=    0 NMtDT0=    0
 Petite list used in FoFCou.
 Keep R1 ints in memory in symmetry-blocked form, NReq=1142897.
 Requested convergence on RMS density matrix=1.00D-08 within 128 cycles.
 Requested convergence on MAX density matrix=1.00D-06.
 Requested convergence on             energy=1.00D-06.
 No special actions if energy rises.
 SCF Done:  E(RHF) =  -150.785783698     A.U. after   10 cycles
            NFock= 10  Conv=0.30D-08     -V/T= 1.9997
 Variable Step   Value    
 -------- ---- -----------
     6       6    3.665191
 ---------------------------------------------------------------------------------------------------
                            Z-MATRIX (ANGSTROMS AND DEGREES)
   CD    Cent   Atom    N1       Length/X        N2       Alpha/Y        N3        Beta/Z          J
 ---------------------------------------------------------------------------------------------------
      1      1  O 
      2      2  O        1   1.401600(     1)
      3      3  H        1   0.947400(     2)      2  100.733(     4)
      4      4  H        2   0.947400(     3)      1  100.733(     5)      3  210.000(     6)      0
 ---------------------------------------------------------------------------------------------------
                         Z-Matrix orientation:                         
 ---------------------------------------------------------------------
 Center     Atomic      Atomic             Coordinates (Angstroms)
 Number     Number       Type             X           Y           Z
 ---------------------------------------------------------------------
      1          8           0        0.000000    0.000000    0.000000
      2          8           0        0.000000    0.000000    1.401600
      3          1           0        0.930825    0.000000   -0.176443
      4          1           0       -0.806118   -0.465412    1.578043
 ---------------------------------------------------------------------
                    Distance matrix (angstroms):
                    1          2          3          4
     1  O    0.000000
     2  O    1.401600   0.000000
     3  H    0.947400   1.832118   0.000000
     4  H    1.832118   0.947400   2.512330   0.000000
 Stoichiometry    H2O2
 Framework group  C2[X(H2O2)]
 Deg. of freedom     4
 Full point group                 C2      NOp   2
 Largest Abelian subgroup         C2      NOp   2
 Largest concise Abelian subgroup C2      NOp   2
                         Standard orientation:                         
 ---------------------------------------------------------------------
 Center     Atomic      Atomic             Coordinates (Angstroms)
 Number     Number       Type             X           Y           Z
 ---------------------------------------------------------------------
      1          8           0        0.000000    0.700800    0.026768
      2          8           0        0.000000   -0.700800    0.026768
      3          1           0        0.899108    0.877243   -0.214147
      4          1           0       -0.899108   -0.877243   -0.214147
 ---------------------------------------------------------------------
 Rotational constants (GHZ):    319.9714114     28.8258951     26.7517168
 Standard basis: CC-pVDZ (5D, 7F)
 There are    20 symmetry adapted cartesian basis functions of A   symmetry.
 There are    20 symmetry adapted cartesian basis functions of B   symmetry.
 There are    19 symmetry adapted basis functions of A   symmetry.
 There are    19 symmetry adapted basis functions of B   symmetry.
    38 basis functions,    80 primitive gaussians,    40 cartesian basis functions
     9 alpha electrons        9 beta electrons
       nuclear repulsion energy        37.9322304788 Hartrees.
 NAtoms=    4 NActive=    4 NUniq=    2 SFac= 4.00D+00 NAtFMM=   60 NAOKFM=F Big=F
 Integral buffers will be    131072 words long.
 Raffenetti 1 integral format.
 Two-electron integral symmetry is turned on.
 One-electron integrals computed using PRISM.
 NBasis=    38 RedAO= T EigKep=  1.56D-02  NBF=    19    19
 NBsUse=    38 1.00D-06 EigRej= -1.00D+00 NBFU=    19    19
 Initial guess from the checkpoint file:  "/blue/chm6586/le.chen/hw3/q2/Gau-75642.chk"
 B after Tr=     0.000000    0.000000    0.000000
         Rot=    1.000000    0.000000    0.000000   -0.000768 Ang=  -0.09 deg.
 Initial guess orbital symmetries:
       Occupied  (A) (B) (A) (B) (B) (A) (A) (A) (B)
       Virtual   (A) (A) (A) (A) (A) (A) (A) (A) (A) (A) (A) (A)
                 (A) (A) (B) (B) (B) (B) (B) (B) (B) (B) (B) (B)
                 (B) (B) (B) (B) (B)
 ExpMin= 1.22D-01 ExpMax= 1.17D+04 ExpMxC= 4.01D+02 IAcc=1 IRadAn=         1 AccDes= 0.00D+00
 Harris functional with IExCor=  205 and IRadAn=       1 diagonalized for initial guess.
 HarFok:  IExCor=  205 AccDes= 0.00D+00 IRadAn=         1 IDoV= 1 UseB2=F ITyADJ=14
 ICtDFT=  3500011 ScaDFX=  1.000000  1.000000  1.000000  1.000000
 FoFCou: FMM=F IPFlag=           0 FMFlag=      100000 FMFlg1=           0
         NFxFlg=           0 DoJE=T BraDBF=F KetDBF=T FulRan=T
         wScrn=  0.000000 ICntrl=     500 IOpCl=  0 I1Cent=   200000004 NGrid=           0
         NMat0=    1 NMatS0=      1 NMatT0=    0 NMatD0=    1 NMtDS0=    0 NMtDT0=    0
 Petite list used in FoFCou.
 Keep R1 ints in memory in symmetry-blocked form, NReq=1142897.
 Requested convergence on RMS density matrix=1.00D-08 within 128 cycles.
 Requested convergence on MAX density matrix=1.00D-06.
 Requested convergence on             energy=1.00D-06.
 No special actions if energy rises.
 SCF Done:  E(RHF) =  -150.785923562     A.U. after   10 cycles
            NFock= 10  Conv=0.34D-08     -V/T= 1.9997
 Variable Step   Value    
 -------- ---- -----------
     6       7    3.752458
 ---------------------------------------------------------------------------------------------------
                            Z-MATRIX (ANGSTROMS AND DEGREES)
   CD    Cent   Atom    N1       Length/X        N2       Alpha/Y        N3        Beta/Z          J
 ---------------------------------------------------------------------------------------------------
      1      1  O 
      2      2  O        1   1.401600(     1)
      3      3  H        1   0.947400(     2)      2  100.733(     4)
      4      4  H        2   0.947400(     3)      1  100.733(     5)      3  215.000(     6)      0
 ---------------------------------------------------------------------------------------------------
                         Z-Matrix orientation:                         
 ---------------------------------------------------------------------
 Center     Atomic      Atomic             Coordinates (Angstroms)
 Number     Number       Type             X           Y           Z
 ---------------------------------------------------------------------
      1          8           0        0.000000    0.000000    0.000000
      2          8           0        0.000000    0.000000    1.401600
      3          1           0        0.930825    0.000000   -0.176443
      4          1           0       -0.762487   -0.533899    1.578043
 ---------------------------------------------------------------------
                    Distance matrix (angstroms):
                    1          2          3          4
     1  O    0.000000
     2  O    1.401600   0.000000
     3  H    0.947400   1.832118   0.000000
     4  H    1.832118   0.947400   2.496112   0.000000
 Stoichiometry    H2O2
 Framework group  C2[X(H2O2)]
 Deg. of freedom     4
 Full point group                 C2      NOp   2
 Largest Abelian subgroup         C2      NOp   2
 Largest concise Abelian subgroup C2      NOp   2
                         Standard orientation:                         
 ---------------------------------------------------------------------
 Center     Atomic      Atomic             Coordinates (Angstroms)
 Number     Number       Type             X           Y           Z
 ---------------------------------------------------------------------
      1          8           0        0.000000    0.700800    0.031100
      2          8           0        0.000000   -0.700800    0.031100
      3          1           0        0.887743    0.877243   -0.248804
      4          1           0       -0.887743   -0.877243   -0.248804
 ---------------------------------------------------------------------
 Rotational constants (GHZ):    319.5759827     28.7698983     26.8098033
 Standard basis: CC-pVDZ (5D, 7F)
 There are    20 symmetry adapted cartesian basis functions of A   symmetry.
 There are    20 symmetry adapted cartesian basis functions of B   symmetry.
 There are    19 symmetry adapted basis functions of A   symmetry.
 There are    19 symmetry adapted basis functions of B   symmetry.
    38 basis functions,    80 primitive gaussians,    40 cartesian basis functions
     9 alpha electrons        9 beta electrons
       nuclear repulsion energy        37.9335989941 Hartrees.
 NAtoms=    4 NActive=    4 NUniq=    2 SFac= 4.00D+00 NAtFMM=   60 NAOKFM=F Big=F
 Integral buffers will be    131072 words long.
 Raffenetti 1 integral format.
 Two-electron integral symmetry is turned on.
 One-electron integrals computed using PRISM.
 NBasis=    38 RedAO= T EigKep=  1.57D-02  NBF=    19    19
 NBsUse=    38 1.00D-06 EigRej= -1.00D+00 NBFU=    19    19
 Initial guess from the checkpoint file:  "/blue/chm6586/le.chen/hw3/q2/Gau-75642.chk"
 B after Tr=     0.000000    0.000000    0.000000
         Rot=    1.000000    0.000000    0.000000   -0.000907 Ang=  -0.10 deg.
 Initial guess orbital symmetries:
       Occupied  (A) (B) (A) (B) (B) (A) (A) (A) (B)
       Virtual   (A) (A) (A) (A) (A) (A) (A) (A) (A) (A) (A) (A)
                 (A) (A) (B) (B) (B) (B) (B) (B) (B) (B) (B) (B)
                 (B) (B) (B) (B) (B)
 ExpMin= 1.22D-01 ExpMax= 1.17D+04 ExpMxC= 4.01D+02 IAcc=1 IRadAn=         1 AccDes= 0.00D+00
 Harris functional with IExCor=  205 and IRadAn=       1 diagonalized for initial guess.
 HarFok:  IExCor=  205 AccDes= 0.00D+00 IRadAn=         1 IDoV= 1 UseB2=F ITyADJ=14
 ICtDFT=  3500011 ScaDFX=  1.000000  1.000000  1.000000  1.000000
 FoFCou: FMM=F IPFlag=           0 FMFlag=      100000 FMFlg1=           0
         NFxFlg=           0 DoJE=T BraDBF=F KetDBF=T FulRan=T
         wScrn=  0.000000 ICntrl=     500 IOpCl=  0 I1Cent=   200000004 NGrid=           0
         NMat0=    1 NMatS0=      1 NMatT0=    0 NMatD0=    1 NMtDS0=    0 NMtDT0=    0
 Petite list used in FoFCou.
 Keep R1 ints in memory in symmetry-blocked form, NReq=1142897.
 Requested convergence on RMS density matrix=1.00D-08 within 128 cycles.
 Requested convergence on MAX density matrix=1.00D-06.
 Requested convergence on             energy=1.00D-06.
 No special actions if energy rises.
 SCF Done:  E(RHF) =  -150.786070354     A.U. after   10 cycles
            NFock= 10  Conv=0.38D-08     -V/T= 1.9997
 Variable Step   Value    
 -------- ---- -----------
     6       8    3.839724
 ---------------------------------------------------------------------------------------------------
                            Z-MATRIX (ANGSTROMS AND DEGREES)
   CD    Cent   Atom    N1       Length/X        N2       Alpha/Y        N3        Beta/Z          J
 ---------------------------------------------------------------------------------------------------
      1      1  O 
      2      2  O        1   1.401600(     1)
      3      3  H        1   0.947400(     2)      2  100.733(     4)
      4      4  H        2   0.947400(     3)      1  100.733(     5)      3  220.000(     6)      0
 ---------------------------------------------------------------------------------------------------
                         Z-Matrix orientation:                         
 ---------------------------------------------------------------------
 Center     Atomic      Atomic             Coordinates (Angstroms)
 Number     Number       Type             X           Y           Z
 ---------------------------------------------------------------------
      1          8           0        0.000000    0.000000    0.000000
      2          8           0        0.000000    0.000000    1.401600
      3          1           0        0.930825    0.000000   -0.176443
      4          1           0       -0.713053   -0.598323    1.578043
 ---------------------------------------------------------------------
                    Distance matrix (angstroms):
                    1          2          3          4
     1  O    0.000000
     2  O    1.401600   0.000000
     3  H    0.947400   1.832118   0.000000
     4  H    1.832118   0.947400   2.477609   0.000000
 Stoichiometry    H2O2
 Framework group  C2[X(H2O2)]
 Deg. of freedom     4
 Full point group                 C2      NOp   2
 Largest Abelian subgroup         C2      NOp   2
 Largest concise Abelian subgroup C2      NOp   2
                         Standard orientation:                         
 ---------------------------------------------------------------------
 Center     Atomic      Atomic             Coordinates (Angstroms)
 Number     Number       Type             X           Y           Z
 ---------------------------------------------------------------------
      1          8           0        0.000000    0.700800    0.035373
      2          8           0        0.000000   -0.700800    0.035373
      3          1           0        0.874689    0.877243   -0.282987
      4          1           0       -0.874689   -0.877243   -0.282987
 ---------------------------------------------------------------------
 Rotational constants (GHZ):    319.1340075     28.7066769     26.8759210
 Standard basis: CC-pVDZ (5D, 7F)
 There are    20 symmetry adapted cartesian basis functions of A   symmetry.
 There are    20 symmetry adapted cartesian basis functions of B   symmetry.
 There are    19 symmetry adapted basis functions of A   symmetry.
 There are    19 symmetry adapted basis functions of B   symmetry.
    38 basis functions,    80 primitive gaussians,    40 cartesian basis functions
     9 alpha electrons        9 beta electrons
       nuclear repulsion energy        37.9351822289 Hartrees.
 NAtoms=    4 NActive=    4 NUniq=    2 SFac= 4.00D+00 NAtFMM=   60 NAOKFM=F Big=F
 Integral buffers will be    131072 words long.
 Raffenetti 1 integral format.
 Two-electron integral symmetry is turned on.
 One-electron integrals computed using PRISM.
 NBasis=    38 RedAO= T EigKep=  1.57D-02  NBF=    19    19
 NBsUse=    38 1.00D-06 EigRej= -1.00D+00 NBFU=    19    19
 Initial guess from the checkpoint file:  "/blue/chm6586/le.chen/hw3/q2/Gau-75642.chk"
 B after Tr=     0.000000    0.000000    0.000000
         Rot=    0.999999    0.000000    0.000000   -0.001046 Ang=  -0.12 deg.
 Initial guess orbital symmetries:
       Occupied  (A) (B) (A) (B) (B) (A) (A) (A) (B)
       Virtual   (A) (A) (A) (A) (A) (A) (A) (A) (A) (A) (A) (A)
                 (A) (A) (B) (B) (B) (B) (B) (B) (B) (B) (B) (B)
                 (B) (B) (B) (B) (B)
 ExpMin= 1.22D-01 ExpMax= 1.17D+04 ExpMxC= 4.01D+02 IAcc=1 IRadAn=         1 AccDes= 0.00D+00
 Harris functional with IExCor=  205 and IRadAn=       1 diagonalized for initial guess.
 HarFok:  IExCor=  205 AccDes= 0.00D+00 IRadAn=         1 IDoV= 1 UseB2=F ITyADJ=14
 ICtDFT=  3500011 ScaDFX=  1.000000  1.000000  1.000000  1.000000
 FoFCou: FMM=F IPFlag=           0 FMFlag=      100000 FMFlg1=           0
         NFxFlg=           0 DoJE=T BraDBF=F KetDBF=T FulRan=T
         wScrn=  0.000000 ICntrl=     500 IOpCl=  0 I1Cent=   200000004 NGrid=           0
         NMat0=    1 NMatS0=      1 NMatT0=    0 NMatD0=    1 NMtDS0=    0 NMtDT0=    0
 Petite list used in FoFCou.
 Keep R1 ints in memory in symmetry-blocked form, NReq=1142897.
 Requested convergence on RMS density matrix=1.00D-08 within 128 cycles.
 Requested convergence on MAX density matrix=1.00D-06.
 Requested convergence on             energy=1.00D-06.
 No special actions if energy rises.
 SCF Done:  E(RHF) =  -150.786215263     A.U. after   10 cycles
            NFock= 10  Conv=0.44D-08     -V/T= 1.9997
 Variable Step   Value    
 -------- ---- -----------
     6       9    3.926991
 ---------------------------------------------------------------------------------------------------
                            Z-MATRIX (ANGSTROMS AND DEGREES)
   CD    Cent   Atom    N1       Length/X        N2       Alpha/Y        N3        Beta/Z          J
 ---------------------------------------------------------------------------------------------------
      1      1  O 
      2      2  O        1   1.401600(     1)
      3      3  H        1   0.947400(     2)      2  100.733(     4)
      4      4  H        2   0.947400(     3)      1  100.733(     5)      3  225.000(     6)      0
 ---------------------------------------------------------------------------------------------------
                         Z-Matrix orientation:                         
 ---------------------------------------------------------------------
 Center     Atomic      Atomic             Coordinates (Angstroms)
 Number     Number       Type             X           Y           Z
 ---------------------------------------------------------------------
      1          8           0        0.000000    0.000000    0.000000
      2          8           0        0.000000    0.000000    1.401600
      3          1           0        0.930825    0.000000   -0.176443
      4          1           0       -0.658192   -0.658192    1.578043
 ---------------------------------------------------------------------
                    Distance matrix (angstroms):
                    1          2          3          4
     1  O    0.000000
     2  O    1.401600   0.000000
     3  H    0.947400   1.832118   0.000000
     4  H    1.832118   0.947400   2.456912   0.000000
 Stoichiometry    H2O2
 Framework group  C2[X(H2O2)]
 Deg. of freedom     4
 Full point group                 C2      NOp   2
 Largest Abelian subgroup         C2      NOp   2
 Largest concise Abelian subgroup C2      NOp   2
                         Standard orientation:                         
 ---------------------------------------------------------------------
 Center     Atomic      Atomic             Coordinates (Angstroms)
 Number     Number       Type             X           Y           Z
 ---------------------------------------------------------------------
      1          8           0        0.000000    0.700800    0.039579
      2          8           0        0.000000   -0.700800    0.039579
      3          1           0        0.859970    0.877243   -0.316632
      4          1           0       -0.859970   -0.877243   -0.316632
 ---------------------------------------------------------------------
 Rotational constants (GHZ):    318.6509355     28.6367911     26.9496797
 Standard basis: CC-pVDZ (5D, 7F)
 There are    20 symmetry adapted cartesian basis functions of A   symmetry.
 There are    20 symmetry adapted cartesian basis functions of B   symmetry.
 There are    19 symmetry adapted basis functions of A   symmetry.
 There are    19 symmetry adapted basis functions of B   symmetry.
    38 basis functions,    80 primitive gaussians,    40 cartesian basis functions
     9 alpha electrons        9 beta electrons
       nuclear repulsion energy        37.9369814830 Hartrees.
 NAtoms=    4 NActive=    4 NUniq=    2 SFac= 4.00D+00 NAtFMM=   60 NAOKFM=F Big=F
 Integral buffers will be    131072 words long.
 Raffenetti 1 integral format.
 Two-electron integral symmetry is turned on.
 One-electron integrals computed using PRISM.
 NBasis=    38 RedAO= T EigKep=  1.58D-02  NBF=    19    19
 NBsUse=    38 1.00D-06 EigRej= -1.00D+00 NBFU=    19    19
 Initial guess from the checkpoint file:  "/blue/chm6586/le.chen/hw3/q2/Gau-75642.chk"
 B after Tr=     0.000000    0.000000    0.000000
         Rot=    0.999999    0.000000    0.000000   -0.001184 Ang=  -0.14 deg.
 Initial guess orbital symmetries:
       Occupied  (A) (B) (A) (B) (B) (A) (A) (A) (B)
       Virtual   (A) (A) (A) (A) (A) (A) (A) (A) (A) (A) (A) (A)
                 (A) (A) (B) (B) (B) (B) (B) (B) (B) (B) (B) (B)
                 (B) (B) (B) (B) (B)
 ExpMin= 1.22D-01 ExpMax= 1.17D+04 ExpMxC= 4.01D+02 IAcc=1 IRadAn=         1 AccDes= 0.00D+00
 Harris functional with IExCor=  205 and IRadAn=       1 diagonalized for initial guess.
 HarFok:  IExCor=  205 AccDes= 0.00D+00 IRadAn=         1 IDoV= 1 UseB2=F ITyADJ=14
 ICtDFT=  3500011 ScaDFX=  1.000000  1.000000  1.000000  1.000000
 FoFCou: FMM=F IPFlag=           0 FMFlag=      100000 FMFlg1=           0
         NFxFlg=           0 DoJE=T BraDBF=F KetDBF=T FulRan=T
         wScrn=  0.000000 ICntrl=     500 IOpCl=  0 I1Cent=   200000004 NGrid=           0
         NMat0=    1 NMatS0=      1 NMatT0=    0 NMatD0=    1 NMtDS0=    0 NMtDT0=    0
 Petite list used in FoFCou.
 Keep R1 ints in memory in symmetry-blocked form, NReq=1142897.
 Requested convergence on RMS density matrix=1.00D-08 within 128 cycles.
 Requested convergence on MAX density matrix=1.00D-06.
 Requested convergence on             energy=1.00D-06.
 No special actions if energy rises.
 SCF Done:  E(RHF) =  -150.786348511     A.U. after   10 cycles
            NFock= 10  Conv=0.50D-08     -V/T= 1.9997
 Variable Step   Value    
 -------- ---- -----------
     6      10    4.014257
 ---------------------------------------------------------------------------------------------------
                            Z-MATRIX (ANGSTROMS AND DEGREES)
   CD    Cent   Atom    N1       Length/X        N2       Alpha/Y        N3        Beta/Z          J
 ---------------------------------------------------------------------------------------------------
      1      1  O 
      2      2  O        1   1.401600(     1)
      3      3  H        1   0.947400(     2)      2  100.733(     4)
      4      4  H        2   0.947400(     3)      1  100.733(     5)      3  230.000(     6)      0
 ---------------------------------------------------------------------------------------------------
                         Z-Matrix orientation:                         
 ---------------------------------------------------------------------
 Center     Atomic      Atomic             Coordinates (Angstroms)
 Number     Number       Type             X           Y           Z
 ---------------------------------------------------------------------
      1          8           0        0.000000    0.000000    0.000000
      2          8           0        0.000000    0.000000    1.401600
      3          1           0        0.930825    0.000000   -0.176443
      4          1           0       -0.598323   -0.713053    1.578043
 ---------------------------------------------------------------------
                    Distance matrix (angstroms):
                    1          2          3          4
     1  O    0.000000
     2  O    1.401600   0.000000
     3  H    0.947400   1.832118   0.000000
     4  H    1.832118   0.947400   2.434124   0.000000
 Stoichiometry    H2O2
 Framework group  C2[X(H2O2)]
 Deg. of freedom     4
 Full point group                 C2      NOp   2
 Largest Abelian subgroup         C2      NOp   2
 Largest concise Abelian subgroup C2      NOp   2
                         Standard orientation:                         
 ---------------------------------------------------------------------
 Center     Atomic      Atomic             Coordinates (Angstroms)
 Number     Number       Type             X           Y           Z
 ---------------------------------------------------------------------
      1          8           0        0.000000    0.700800    0.043709
      2          8           0        0.000000   -0.700800    0.043709
      3          1           0        0.843614    0.877243   -0.349674
      4          1           0       -0.843614   -0.877243   -0.349674
 ---------------------------------------------------------------------
 Rotational constants (GHZ):    318.1325390     28.5608541     27.0306367
 Standard basis: CC-pVDZ (5D, 7F)
 There are    20 symmetry adapted cartesian basis functions of A   symmetry.
 There are    20 symmetry adapted cartesian basis functions of B   symmetry.
 There are    19 symmetry adapted basis functions of A   symmetry.
 There are    19 symmetry adapted basis functions of B   symmetry.
    38 basis functions,    80 primitive gaussians,    40 cartesian basis functions
     9 alpha electrons        9 beta electrons
       nuclear repulsion energy        37.9389978720 Hartrees.
 NAtoms=    4 NActive=    4 NUniq=    2 SFac= 4.00D+00 NAtFMM=   60 NAOKFM=F Big=F
 Integral buffers will be    131072 words long.
 Raffenetti 1 integral format.
 Two-electron integral symmetry is turned on.
 One-electron integrals computed using PRISM.
 NBasis=    38 RedAO= T EigKep=  1.59D-02  NBF=    19    19
 NBsUse=    38 1.00D-06 EigRej= -1.00D+00 NBFU=    19    19
 Initial guess from the checkpoint file:  "/blue/chm6586/le.chen/hw3/q2/Gau-75642.chk"
 B after Tr=     0.000000    0.000000    0.000000
         Rot=    0.999999    0.000000    0.000000   -0.001323 Ang=  -0.15 deg.
 Initial guess orbital symmetries:
       Occupied  (A) (B) (A) (B) (B) (A) (A) (A) (B)
       Virtual   (A) (A) (A) (A) (A) (A) (A) (A) (A) (A) (A) (A)
                 (A) (A) (B) (B) (B) (B) (B) (B) (B) (B) (B) (B)
                 (B) (B) (B) (B) (B)
 ExpMin= 1.22D-01 ExpMax= 1.17D+04 ExpMxC= 4.01D+02 IAcc=1 IRadAn=         1 AccDes= 0.00D+00
 Harris functional with IExCor=  205 and IRadAn=       1 diagonalized for initial guess.
 HarFok:  IExCor=  205 AccDes= 0.00D+00 IRadAn=         1 IDoV= 1 UseB2=F ITyADJ=14
 ICtDFT=  3500011 ScaDFX=  1.000000  1.000000  1.000000  1.000000
 FoFCou: FMM=F IPFlag=           0 FMFlag=      100000 FMFlg1=           0
         NFxFlg=           0 DoJE=T BraDBF=F KetDBF=T FulRan=T
         wScrn=  0.000000 ICntrl=     500 IOpCl=  0 I1Cent=   200000004 NGrid=           0
         NMat0=    1 NMatS0=      1 NMatT0=    0 NMatD0=    1 NMtDS0=    0 NMtDT0=    0
 Petite list used in FoFCou.
 Keep R1 ints in memory in symmetry-blocked form, NReq=1142897.
 Requested convergence on RMS density matrix=1.00D-08 within 128 cycles.
 Requested convergence on MAX density matrix=1.00D-06.
 Requested convergence on             energy=1.00D-06.
 No special actions if energy rises.
 SCF Done:  E(RHF) =  -150.786459561     A.U. after   10 cycles
            NFock= 10  Conv=0.58D-08     -V/T= 1.9997
 Variable Step   Value    
 -------- ---- -----------
     6      11    4.101524
 ---------------------------------------------------------------------------------------------------
                            Z-MATRIX (ANGSTROMS AND DEGREES)
   CD    Cent   Atom    N1       Length/X        N2       Alpha/Y        N3        Beta/Z          J
 ---------------------------------------------------------------------------------------------------
      1      1  O 
      2      2  O        1   1.401600(     1)
      3      3  H        1   0.947400(     2)      2  100.733(     4)
      4      4  H        2   0.947400(     3)      1  100.733(     5)      3  235.000(     6)      0
 ---------------------------------------------------------------------------------------------------
                         Z-Matrix orientation:                         
 ---------------------------------------------------------------------
 Center     Atomic      Atomic             Coordinates (Angstroms)
 Number     Number       Type             X           Y           Z
 ---------------------------------------------------------------------
      1          8           0        0.000000    0.000000    0.000000
      2          8           0        0.000000    0.000000    1.401600
      3          1           0        0.930825    0.000000   -0.176443
      4          1           0       -0.533899   -0.762487    1.578043
 ---------------------------------------------------------------------
                    Distance matrix (angstroms):
                    1          2          3          4
     1  O    0.000000
     2  O    1.401600   0.000000
     3  H    0.947400   1.832118   0.000000
     4  H    1.832118   0.947400   2.409362   0.000000
 Stoichiometry    H2O2
 Framework group  C2[X(H2O2)]
 Deg. of freedom     4
 Full point group                 C2      NOp   2
 Largest Abelian subgroup         C2      NOp   2
 Largest concise Abelian subgroup C2      NOp   2
                         Standard orientation:                         
 ---------------------------------------------------------------------
 Center     Atomic      Atomic             Coordinates (Angstroms)
 Number     Number       Type             X           Y           Z
 ---------------------------------------------------------------------
      1          8           0        0.000000    0.700800    0.047756
      2          8           0        0.000000   -0.700800    0.047756
      3          1           0        0.825652    0.877243   -0.382051
      4          1           0       -0.825652   -0.877243   -0.382051
 ---------------------------------------------------------------------
 Rotational constants (GHZ):    317.5847960     28.4795241     27.1182961
 Standard basis: CC-pVDZ (5D, 7F)
 There are    20 symmetry adapted cartesian basis functions of A   symmetry.
 There are    20 symmetry adapted cartesian basis functions of B   symmetry.
 There are    19 symmetry adapted basis functions of A   symmetry.
 There are    19 symmetry adapted basis functions of B   symmetry.
    38 basis functions,    80 primitive gaussians,    40 cartesian basis functions
     9 alpha electrons        9 beta electrons
       nuclear repulsion energy        37.9412321665 Hartrees.
 NAtoms=    4 NActive=    4 NUniq=    2 SFac= 4.00D+00 NAtFMM=   60 NAOKFM=F Big=F
 Integral buffers will be    131072 words long.
 Raffenetti 1 integral format.
 Two-electron integral symmetry is turned on.
 One-electron integrals computed using PRISM.
 NBasis=    38 RedAO= T EigKep=  1.60D-02  NBF=    19    19
 NBsUse=    38 1.00D-06 EigRej= -1.00D+00 NBFU=    19    19
 Initial guess from the checkpoint file:  "/blue/chm6586/le.chen/hw3/q2/Gau-75642.chk"
 B after Tr=     0.000000    0.000000    0.000000
         Rot=    0.999999    0.000000    0.000000   -0.001460 Ang=  -0.17 deg.
 Initial guess orbital symmetries:
       Occupied  (A) (B) (A) (B) (B) (A) (A) (A) (B)
       Virtual   (A) (A) (A) (A) (A) (A) (A) (A) (A) (A) (A) (A)
                 (A) (A) (B) (B) (B) (B) (B) (B) (B) (B) (B) (B)
                 (B) (B) (B) (B) (B)
 ExpMin= 1.22D-01 ExpMax= 1.17D+04 ExpMxC= 4.01D+02 IAcc=1 IRadAn=         1 AccDes= 0.00D+00
 Harris functional with IExCor=  205 and IRadAn=       1 diagonalized for initial guess.
 HarFok:  IExCor=  205 AccDes= 0.00D+00 IRadAn=         1 IDoV= 1 UseB2=F ITyADJ=14
 ICtDFT=  3500011 ScaDFX=  1.000000  1.000000  1.000000  1.000000
 FoFCou: FMM=F IPFlag=           0 FMFlag=      100000 FMFlg1=           0
         NFxFlg=           0 DoJE=T BraDBF=F KetDBF=T FulRan=T
         wScrn=  0.000000 ICntrl=     500 IOpCl=  0 I1Cent=   200000004 NGrid=           0
         NMat0=    1 NMatS0=      1 NMatT0=    0 NMatD0=    1 NMtDS0=    0 NMtDT0=    0
 Petite list used in FoFCou.
 Keep R1 ints in memory in symmetry-blocked form, NReq=1142897.
 Requested convergence on RMS density matrix=1.00D-08 within 128 cycles.
 Requested convergence on MAX density matrix=1.00D-06.
 Requested convergence on             energy=1.00D-06.
 No special actions if energy rises.
 SCF Done:  E(RHF) =  -150.786537376     A.U. after   10 cycles
            NFock= 10  Conv=0.67D-08     -V/T= 1.9997
 Variable Step   Value    
 -------- ---- -----------
     6      12    4.188790
 ---------------------------------------------------------------------------------------------------
                            Z-MATRIX (ANGSTROMS AND DEGREES)
   CD    Cent   Atom    N1       Length/X        N2       Alpha/Y        N3        Beta/Z          J
 ---------------------------------------------------------------------------------------------------
      1      1  O 
      2      2  O        1   1.401600(     1)
      3      3  H        1   0.947400(     2)      2  100.733(     4)
      4      4  H        2   0.947400(     3)      1  100.733(     5)      3  240.000(     6)      0
 ---------------------------------------------------------------------------------------------------
                         Z-Matrix orientation:                         
 ---------------------------------------------------------------------
 Center     Atomic      Atomic             Coordinates (Angstroms)
 Number     Number       Type             X           Y           Z
 ---------------------------------------------------------------------
      1          8           0        0.000000    0.000000    0.000000
      2          8           0        0.000000    0.000000    1.401600
      3          1           0        0.930825    0.000000   -0.176443
      4          1           0       -0.465412   -0.806118    1.578043
 ---------------------------------------------------------------------
                    Distance matrix (angstroms):
                    1          2          3          4
     1  O    0.000000
     2  O    1.401600   0.000000
     3  H    0.947400   1.832118   0.000000
     4  H    1.832118   0.947400   2.382756   0.000000
 Stoichiometry    H2O2
 Framework group  C2[X(H2O2)]
 Deg. of freedom     4
 Full point group                 C2      NOp   2
 Largest Abelian subgroup         C2      NOp   2
 Largest concise Abelian subgroup C2      NOp   2
                         Standard orientation:                         
 ---------------------------------------------------------------------
 Center     Atomic      Atomic             Coordinates (Angstroms)
 Number     Number       Type             X           Y           Z
 ---------------------------------------------------------------------
      1          8           0        0.000000    0.700800    0.051712
      2          8           0        0.000000   -0.700800    0.051712
      3          1           0        0.806118    0.877243   -0.413700
      4          1           0       -0.806118   -0.877243   -0.413700
 ---------------------------------------------------------------------
 Rotational constants (GHZ):    317.0137778     28.3934970     27.2121100
 Standard basis: CC-pVDZ (5D, 7F)
 There are    20 symmetry adapted cartesian basis functions of A   symmetry.
 There are    20 symmetry adapted cartesian basis functions of B   symmetry.
 There are    19 symmetry adapted basis functions of A   symmetry.
 There are    19 symmetry adapted basis functions of B   symmetry.
    38 basis functions,    80 primitive gaussians,    40 cartesian basis functions
     9 alpha electrons        9 beta electrons
       nuclear repulsion energy        37.9436845961 Hartrees.
 NAtoms=    4 NActive=    4 NUniq=    2 SFac= 4.00D+00 NAtFMM=   60 NAOKFM=F Big=F
 Integral buffers will be    131072 words long.
 Raffenetti 1 integral format.
 Two-electron integral symmetry is turned on.
 One-electron integrals computed using PRISM.
 NBasis=    38 RedAO= T EigKep=  1.61D-02  NBF=    19    19
 NBsUse=    38 1.00D-06 EigRej= -1.00D+00 NBFU=    19    19
 Initial guess from the checkpoint file:  "/blue/chm6586/le.chen/hw3/q2/Gau-75642.chk"
 B after Tr=     0.000000    0.000000    0.000000
         Rot=    0.999999    0.000000    0.000000   -0.001597 Ang=  -0.18 deg.
 Initial guess orbital symmetries:
       Occupied  (A) (B) (A) (B) (B) (A) (A) (A) (B)
       Virtual   (A) (A) (A) (A) (A) (A) (A) (A) (A) (A) (A) (A)
                 (A) (A) (B) (B) (B) (B) (B) (B) (B) (B) (B) (B)
                 (B) (B) (B) (B) (B)
 ExpMin= 1.22D-01 ExpMax= 1.17D+04 ExpMxC= 4.01D+02 IAcc=1 IRadAn=         1 AccDes= 0.00D+00
 Harris functional with IExCor=  205 and IRadAn=       1 diagonalized for initial guess.
 HarFok:  IExCor=  205 AccDes= 0.00D+00 IRadAn=         1 IDoV= 1 UseB2=F ITyADJ=14
 ICtDFT=  3500011 ScaDFX=  1.000000  1.000000  1.000000  1.000000
 FoFCou: FMM=F IPFlag=           0 FMFlag=      100000 FMFlg1=           0
         NFxFlg=           0 DoJE=T BraDBF=F KetDBF=T FulRan=T
         wScrn=  0.000000 ICntrl=     500 IOpCl=  0 I1Cent=   200000004 NGrid=           0
         NMat0=    1 NMatS0=      1 NMatT0=    0 NMatD0=    1 NMtDS0=    0 NMtDT0=    0
 Petite list used in FoFCou.
 Keep R1 ints in memory in symmetry-blocked form, NReq=1142897.
 Requested convergence on RMS density matrix=1.00D-08 within 128 cycles.
 Requested convergence on MAX density matrix=1.00D-06.
 Requested convergence on             energy=1.00D-06.
 No special actions if energy rises.
 SCF Done:  E(RHF) =  -150.786570714     A.U. after   10 cycles
            NFock= 10  Conv=0.78D-08     -V/T= 1.9997
 Variable Step   Value    
 -------- ---- -----------
     6      13    4.276057
 ---------------------------------------------------------------------------------------------------
                            Z-MATRIX (ANGSTROMS AND DEGREES)
   CD    Cent   Atom    N1       Length/X        N2       Alpha/Y        N3        Beta/Z          J
 ---------------------------------------------------------------------------------------------------
      1      1  O 
      2      2  O        1   1.401600(     1)
      3      3  H        1   0.947400(     2)      2  100.733(     4)
      4      4  H        2   0.947400(     3)      1  100.733(     5)      3  245.000(     6)      0
 ---------------------------------------------------------------------------------------------------
                         Z-Matrix orientation:                         
 ---------------------------------------------------------------------
 Center     Atomic      Atomic             Coordinates (Angstroms)
 Number     Number       Type             X           Y           Z
 ---------------------------------------------------------------------
      1          8           0        0.000000    0.000000    0.000000
      2          8           0        0.000000    0.000000    1.401600
      3          1           0        0.930825    0.000000   -0.176443
      4          1           0       -0.393384   -0.843614    1.578043
 ---------------------------------------------------------------------
                    Distance matrix (angstroms):
                    1          2          3          4
     1  O    0.000000
     2  O    1.401600   0.000000
     3  H    0.947400   1.832118   0.000000
     4  H    1.832118   0.947400   2.354450   0.000000
 Stoichiometry    H2O2
 Framework group  C2[X(H2O2)]
 Deg. of freedom     4
 Full point group                 C2      NOp   2
 Largest Abelian subgroup         C2      NOp   2
 Largest concise Abelian subgroup C2      NOp   2
                         Standard orientation:                         
 ---------------------------------------------------------------------
 Center     Atomic      Atomic             Coordinates (Angstroms)
 Number     Number       Type             X           Y           Z
 ---------------------------------------------------------------------
      1          8           0        0.000000    0.700800    0.055570
      2          8           0        0.000000   -0.700800    0.055570
      3          1           0        0.785050    0.877243   -0.444562
      4          1           0       -0.785050   -0.877243   -0.444562
 ---------------------------------------------------------------------
 Rotational constants (GHZ):    316.4255424     28.3034988     27.3114787
 Standard basis: CC-pVDZ (5D, 7F)
 There are    20 symmetry adapted cartesian basis functions of A   symmetry.
 There are    20 symmetry adapted cartesian basis functions of B   symmetry.
 There are    19 symmetry adapted basis functions of A   symmetry.
 There are    19 symmetry adapted basis functions of B   symmetry.
    38 basis functions,    80 primitive gaussians,    40 cartesian basis functions
     9 alpha electrons        9 beta electrons
       nuclear repulsion energy        37.9463546137 Hartrees.
 NAtoms=    4 NActive=    4 NUniq=    2 SFac= 4.00D+00 NAtFMM=   60 NAOKFM=F Big=F
 Integral buffers will be    131072 words long.
 Raffenetti 1 integral format.
 Two-electron integral symmetry is turned on.
 One-electron integrals computed using PRISM.
 NBasis=    38 RedAO= T EigKep=  1.62D-02  NBF=    19    19
 NBsUse=    38 1.00D-06 EigRej= -1.00D+00 NBFU=    19    19
 Initial guess from the checkpoint file:  "/blue/chm6586/le.chen/hw3/q2/Gau-75642.chk"
 B after Tr=     0.000000    0.000000    0.000000
         Rot=    0.999998    0.000000    0.000000   -0.001733 Ang=  -0.20 deg.
 Initial guess orbital symmetries:
       Occupied  (A) (B) (A) (B) (B) (A) (A) (A) (B)
       Virtual   (A) (A) (A) (A) (A) (A) (A) (A) (A) (A) (A) (A)
                 (A) (A) (B) (B) (B) (B) (B) (B) (B) (B) (B) (B)
[...]
 Stoichiometry    H2O2
 Framework group  C2[X(H2O2)]
 Deg. of freedom     4
 Full point group                 C2      NOp   2
 Largest Abelian subgroup         C2      NOp   2
 Largest concise Abelian subgroup C2      NOp   2
                         Standard orientation:                         
 ---------------------------------------------------------------------
 Center     Atomic      Atomic             Coordinates (Angstroms)
 Number     Number       Type             X           Y           Z
 ---------------------------------------------------------------------
      1          8           0        0.000000    0.700800    0.009014
      2          8           0        0.000000   -0.700800    0.009014
      3          1           0       -0.927283    0.877243   -0.072113
      4          1           0        0.927283   -0.877243   -0.072113
 ---------------------------------------------------------------------
 Rotational constants (GHZ):    320.9962867     28.9686280     26.6056401
 Standard basis: CC-pVDZ (5D, 7F)
 There are    20 symmetry adapted cartesian basis functions of A   symmetry.
 There are    20 symmetry adapted cartesian basis functions of B   symmetry.
 There are    19 symmetry adapted basis functions of A   symmetry.
 There are    19 symmetry adapted basis functions of B   symmetry.
    38 basis functions,    80 primitive gaussians,    40 cartesian basis functions
     9 alpha electrons        9 beta electrons
       nuclear repulsion energy        37.9288777966 Hartrees.
 NAtoms=    4 NActive=    4 NUniq=    2 SFac= 4.00D+00 NAtFMM=   60 NAOKFM=F Big=F
 Integral buffers will be    131072 words long.
 Raffenetti 1 integral format.
 Two-electron integral symmetry is turned on.
 One-electron integrals computed using PRISM.
 NBasis=    38 RedAO= T EigKep=  1.54D-02  NBF=    19    19
 NBsUse=    38 1.00D-06 EigRej= -1.00D+00 NBFU=    19    19
 Initial guess from the checkpoint file:  "/blue/chm6586/le.chen/hw3/q2/Gau-75642.chk"
 B after Tr=     0.000000    0.000000    0.000000
         Rot=    1.000000    0.000000    0.000000   -0.000349 Ang=  -0.04 deg.
 Initial guess orbital symmetries:
       Occupied  (A) (B) (A) (B) (B) (A) (A) (A) (B)
       Virtual   (A) (A) (A) (A) (A) (A) (A) (A) (A) (A) (A) (A)
                 (A) (A) (B) (B) (B) (B) (B) (B) (B) (B) (B) (B)
                 (B) (B) (B) (B) (B)
 ExpMin= 1.22D-01 ExpMax= 1.17D+04 ExpMxC= 4.01D+02 IAcc=1 IRadAn=         1 AccDes= 0.00D+00
 Harris functional with IExCor=  205 and IRadAn=       1 diagonalized for initial guess.
 HarFok:  IExCor=  205 AccDes= 0.00D+00 IRadAn=         1 IDoV= 1 UseB2=F ITyADJ=14
 ICtDFT=  3500011 ScaDFX=  1.000000  1.000000  1.000000  1.000000
 FoFCou: FMM=F IPFlag=           0 FMFlag=      100000 FMFlg1=           0
         NFxFlg=           0 DoJE=T BraDBF=F KetDBF=T FulRan=T
         wScrn=  0.000000 ICntrl=     500 IOpCl=  0 I1Cent=   200000004 NGrid=           0
         NMat0=    1 NMatS0=      1 NMatT0=    0 NMatD0=    1 NMtDS0=    0 NMtDT0=    0
 Petite list used in FoFCou.
 Keep R1 ints in memory in symmetry-blocked form, NReq=1142897.
 Requested convergence on RMS density matrix=1.00D-08 within 128 cycles.
 Requested convergence on MAX density matrix=1.00D-06.
 Requested convergence on             energy=1.00D-06.
 No special actions if energy rises.
 SCF Done:  E(RHF) =  -150.785476103     A.U. after   10 cycles
            NFock= 10  Conv=0.24D-08     -V/T= 1.9997
 Variable Step   Value    
 -------- ---- -----------
     6      71    9.337511
 ---------------------------------------------------------------------------------------------------
                            Z-MATRIX (ANGSTROMS AND DEGREES)
   CD    Cent   Atom    N1       Length/X        N2       Alpha/Y        N3        Beta/Z          J
 ---------------------------------------------------------------------------------------------------
      1      1  O 
      2      2  O        1   1.401600(     1)
      3      3  H        1   0.947400(     2)      2  100.733(     4)
      4      4  H        2   0.947400(     3)      1  100.733(     5)      3  535.000(     6)      0
 ---------------------------------------------------------------------------------------------------
                         Z-Matrix orientation:                         
 ---------------------------------------------------------------------
 Center     Atomic      Atomic             Coordinates (Angstroms)
 Number     Number       Type             X           Y           Z
 ---------------------------------------------------------------------
      1          8           0        0.000000    0.000000    0.000000
      2          8           0        0.000000    0.000000    1.401600
      3          1           0        0.930825    0.000000   -0.176443
      4          1           0       -0.927283    0.081127    1.578043
 ---------------------------------------------------------------------
                    Distance matrix (angstroms):
                    1          2          3          4
     1  O    0.000000
     2  O    1.401600   0.000000
     3  H    0.947400   1.832118   0.000000
     4  H    1.832118   0.947400   2.556827   0.000000
 Stoichiometry    H2O2
 Framework group  C2[X(H2O2)]
 Deg. of freedom     4
 Full point group                 C2      NOp   2
 Largest Abelian subgroup         C2      NOp   2
 Largest concise Abelian subgroup C2      NOp   2
                         Standard orientation:                         
 ---------------------------------------------------------------------
 Center     Atomic      Atomic             Coordinates (Angstroms)
 Number     Number       Type             X           Y           Z
 ---------------------------------------------------------------------
      1          8           0        0.000000    0.700800    0.004511
      2          8           0        0.000000   -0.700800    0.004511
      3          1           0       -0.929939    0.877243   -0.036091
      4          1           0        0.929939   -0.877243   -0.036091
 ---------------------------------------------------------------------
 Rotational constants (GHZ):    321.0962793     28.9823738     26.5917204
 Standard basis: CC-pVDZ (5D, 7F)
 There are    20 symmetry adapted cartesian basis functions of A   symmetry.
 There are    20 symmetry adapted cartesian basis functions of B   symmetry.
 There are    19 symmetry adapted basis functions of A   symmetry.
 There are    19 symmetry adapted basis functions of B   symmetry.
    38 basis functions,    80 primitive gaussians,    40 cartesian basis functions
     9 alpha electrons        9 beta electrons
       nuclear repulsion energy        37.9285647389 Hartrees.
 NAtoms=    4 NActive=    4 NUniq=    2 SFac= 4.00D+00 NAtFMM=   60 NAOKFM=F Big=F
 Integral buffers will be    131072 words long.
 Raffenetti 1 integral format.
 Two-electron integral symmetry is turned on.
 One-electron integrals computed using PRISM.
 NBasis=    38 RedAO= T EigKep=  1.54D-02  NBF=    19    19
 NBsUse=    38 1.00D-06 EigRej= -1.00D+00 NBFU=    19    19
 Initial guess from the checkpoint file:  "/blue/chm6586/le.chen/hw3/q2/Gau-75642.chk"
 B after Tr=     0.000000    0.000000    0.000000
         Rot=    1.000000    0.000000    0.000000   -0.000210 Ang=  -0.02 deg.
 Initial guess orbital symmetries:
       Occupied  (A) (B) (A) (B) (B) (A) (A) (A) (B)
       Virtual   (A) (A) (A) (A) (A) (A) (A) (A) (A) (A) (A) (A)
                 (A) (A) (B) (B) (B) (B) (B) (B) (B) (B) (B) (B)
                 (B) (B) (B) (B) (B)
 ExpMin= 1.22D-01 ExpMax= 1.17D+04 ExpMxC= 4.01D+02 IAcc=1 IRadAn=         1 AccDes= 0.00D+00
 Harris functional with IExCor=  205 and IRadAn=       1 diagonalized for initial guess.
 HarFok:  IExCor=  205 AccDes= 0.00D+00 IRadAn=         1 IDoV= 1 UseB2=F ITyADJ=14
 ICtDFT=  3500011 ScaDFX=  1.000000  1.000000  1.000000  1.000000
 FoFCou: FMM=F IPFlag=           0 FMFlag=      100000 FMFlg1=           0
         NFxFlg=           0 DoJE=T BraDBF=F KetDBF=T FulRan=T
         wScrn=  0.000000 ICntrl=     500 IOpCl=  0 I1Cent=   200000004 NGrid=           0
         NMat0=    1 NMatS0=      1 NMatT0=    0 NMatD0=    1 NMtDS0=    0 NMtDT0=    0
 Petite list used in FoFCou.
 Keep R1 ints in memory in symmetry-blocked form, NReq=1142897.
 Requested convergence on RMS density matrix=1.00D-08 within 128 cycles.
 Requested convergence on MAX density matrix=1.00D-06.
 Requested convergence on             energy=1.00D-06.
 No special actions if energy rises.
 SCF Done:  E(RHF) =  -150.785427757     A.U. after   10 cycles
            NFock= 10  Conv=0.22D-08     -V/T= 1.9997
 Variable Step   Value    
 -------- ---- -----------
     6      72    9.424778
 ---------------------------------------------------------------------------------------------------
                            Z-MATRIX (ANGSTROMS AND DEGREES)
   CD    Cent   Atom    N1       Length/X        N2       Alpha/Y        N3        Beta/Z          J
 ---------------------------------------------------------------------------------------------------
      1      1  O 
      2      2  O        1   1.401600(     1)
      3      3  H        1   0.947400(     2)      2  100.733(     4)
      4      4  H        2   0.947400(     3)      1  100.733(     5)      3  540.000(     6)      0
 ---------------------------------------------------------------------------------------------------
                         Z-Matrix orientation:                         
 ---------------------------------------------------------------------
 Center     Atomic      Atomic             Coordinates (Angstroms)
 Number     Number       Type             X           Y           Z
 ---------------------------------------------------------------------
      1          8           0        0.000000    0.000000    0.000000
      2          8           0        0.000000    0.000000    1.401600
      3          1           0        0.930825    0.000000   -0.176443
      4          1           0       -0.930825    0.000000    1.578043
 ---------------------------------------------------------------------
                    Distance matrix (angstroms):
                    1          2          3          4
     1  O    0.000000
     2  O    1.401600   0.000000
     3  H    0.947400   1.832118   0.000000
     4  H    1.832118   0.947400   2.558117   0.000000
 Stoichiometry    H2O2
 Framework group  C2H[SGH(H2O2)]
 Deg. of freedom     3
 Full point group                 C2H     NOp   4
 Omega: Change in point group or standard orientation.

 Old FWG=C02  [X(H2O2)]
 New FWG=C02H [SGH(H2O2)]
 Largest Abelian subgroup         C2H     NOp   4
 Largest concise Abelian subgroup C2      NOp   2
                         Standard orientation:                         
 ---------------------------------------------------------------------
 Center     Atomic      Atomic             Coordinates (Angstroms)
 Number     Number       Type             X           Y           Z
 ---------------------------------------------------------------------
      1          8           0        0.000000    0.700800    0.000000
      2          8           0        0.000000   -0.700800    0.000000
      3          1           0       -0.930825    0.877243    0.000000
      4          1           0        0.930825   -0.877243    0.000000
 ---------------------------------------------------------------------
 Rotational constants (GHZ):    321.1297637     28.9869698     26.5870719
 Standard basis: CC-pVDZ (5D, 7F)
 There are    15 symmetry adapted cartesian basis functions of AG  symmetry.
 There are     5 symmetry adapted cartesian basis functions of BG  symmetry.
 There are     5 symmetry adapted cartesian basis functions of AU  symmetry.
 There are    15 symmetry adapted cartesian basis functions of BU  symmetry.
 There are    14 symmetry adapted basis functions of AG  symmetry.
 There are     5 symmetry adapted basis functions of BG  symmetry.
 There are     5 symmetry adapted basis functions of AU  symmetry.
 There are    14 symmetry adapted basis functions of BU  symmetry.
    38 basis functions,    80 primitive gaussians,    40 cartesian basis functions
     9 alpha electrons        9 beta electrons
       nuclear repulsion energy        37.9284604367 Hartrees.
 NAtoms=    4 NActive=    4 NUniq=    2 SFac= 4.00D+00 NAtFMM=   60 NAOKFM=F Big=F
 Integral buffers will be    131072 words long.
 Raffenetti 1 integral format.
 Two-electron integral symmetry is turned on.
 One-electron integrals computed using PRISM.
 NBasis=    38 RedAO= T EigKep=  2.17D-02  NBF=    14     5     5    14
 NBsUse=    38 1.00D-06 EigRej= -1.00D+00 NBFU=    14     5     5    14
 Initial guess from the checkpoint file:  "/blue/chm6586/le.chen/hw3/q2/Gau-75642.chk"
 B after Tr=     0.000000    0.000000    0.000000
         Rot=    1.000000    0.000000    0.000000   -0.000070 Ang=  -0.01 deg.
 Initial guess orbital symmetries:
       Occupied  (AG) (BU) (AG) (BG) (BG) (?A) (?A) (?A) (BG)
       Virtual   (?B) (?B) (?B) (?B) (?B) (AG) (?B) (?B) (?B) (?B)
                 (?B) (?B) (BG) (BG) (BG) (BG) (BG) (AU) (AU) (BU)
                 (BU) (BU) (BU) (BU) (BU) (BU) (BU) (BU) (BU)
 ExpMin= 1.22D-01 ExpMax= 1.17D+04 ExpMxC= 4.01D+02 IAcc=1 IRadAn=         1 AccDes= 0.00D+00
 Harris functional with IExCor=  205 and IRadAn=       1 diagonalized for initial guess.
 HarFok:  IExCor=  205 AccDes= 0.00D+00 IRadAn=         1 IDoV= 1 UseB2=F ITyADJ=14
 ICtDFT=  3500011 ScaDFX=  1.000000  1.000000  1.000000  1.000000
 FoFCou: FMM=F IPFlag=           0 FMFlag=      100000 FMFlg1=           0
         NFxFlg=           0 DoJE=T BraDBF=F KetDBF=T FulRan=T
         wScrn=  0.000000 ICntrl=     500 IOpCl=  0 I1Cent=   200000004 NGrid=           0
         NMat0=    1 NMatS0=      1 NMatT0=    0 NMatD0=    1 NMtDS0=    0 NMtDT0=    0
 Petite list used in FoFCou.
 Keep R1 ints in memory in symmetry-blocked form, NReq=1143397.
 Requested convergence on RMS density matrix=1.00D-08 within 128 cycles.
 Requested convergence on MAX density matrix=1.00D-06.
 Requested convergence on             energy=1.00D-06.
 No special actions if energy rises.
 An orbital has undefined symmetry, so N**3 symmetry is turned off.
 Density matrix breaks symmetry, PCut= 1.00D-04
 Density matrix has no symmetry -- integrals replicated.
 Density matrix breaks symmetry, PCut= 1.00D-07
 Density matrix has no symmetry -- integrals replicated.
 Density matrix breaks symmetry, PCut= 1.00D-07
 Density matrix has no symmetry -- integrals replicated.
 Density matrix breaks symmetry, PCut= 1.00D-07
 Density matrix has no symmetry -- integrals replicated.
 Density matrix breaks symmetry, PCut= 1.00D-07
 Density matrix has no symmetry -- integrals replicated.
 Density matrix breaks symmetry, PCut= 1.00D-07
 Density matrix has no symmetry -- integrals replicated.
 Density matrix breaks symmetry, PCut= 1.00D-07
 Density matrix has no symmetry -- integrals replicated.
 Density matrix breaks symmetry, PCut= 1.00D-07
 Density matrix has no symmetry -- integrals replicated.
 Density matrix breaks symmetry, PCut= 1.00D-07
 Density matrix has no symmetry -- integrals replicated.
 SCF Done:  E(RHF) =  -150.785411395     A.U. after   10 cycles
            NFock= 10  Conv=0.24D-08     -V/T= 1.9997
 Scan completed.

 Summary of the potential surface scan:
   N      D3          SCF    
 ----  ---------  -----------
    1   180.0000   -150.78541
    2   185.0000   -150.78543
    3   190.0000   -150.78548
    4   195.0000   -150.78555
    5   200.0000   -150.78566
    6   205.0000   -150.78578
    7   210.0000   -150.78592
    8   215.0000   -150.78607
    9   220.0000   -150.78622
   10   225.0000   -150.78635
   11   230.0000   -150.78646
   12   235.0000   -150.78654
   13   240.0000   -150.78657
   14   245.0000   -150.78655
   15   250.0000   -150.78646
   16   255.0000   -150.78630
   17   260.0000   -150.78605
   18   265.0000   -150.78571
   19   270.0000   -150.78527
   20   275.0000   -150.78474
   21   280.0000   -150.78410
   22   285.0000   -150.78337
   23   290.0000   -150.78255
   24   295.0000   -150.78165
   25   300.0000   -150.78067
   26   305.0000   -150.77964
   27   310.0000   -150.77857
   28   315.0000   -150.77748
   29   320.0000   -150.77639
   30   325.0000   -150.77534
   31   330.0000   -150.77434
   32   335.0000   -150.77344
   33   340.0000   -150.77265
   34   345.0000   -150.77201
   35   350.0000   -150.77153
   36   355.0000   -150.77123
   37   360.0000   -150.77113
   38   365.0000   -150.77123
   39   370.0000   -150.77153
   40   375.0000   -150.77201
   41   380.0000   -150.77265
   42   385.0000   -150.77344
   43   390.0000   -150.77434
   44   395.0000   -150.77534
   45   400.0000   -150.77639
   46   405.0000   -150.77748
   47   410.0000   -150.77857
   48   415.0000   -150.77964
   49   420.0000   -150.78067
   50   425.0000   -150.78165
   51   430.0000   -150.78255
   52   435.0000   -150.78337
   53   440.0000   -150.78410
   54   445.0000   -150.78474
   55   450.0000   -150.78527
   56   455.0000   -150.78571
   57   460.0000   -150.78605
   58   465.0000   -150.78630
   59   470.0000   -150.78646
   60   475.0000   -150.78655
   61   480.0000   -150.78657
   62   485.0000   -150.78654
   63   490.0000   -150.78646
   64   495.0000   -150.78635
   65   500.0000   -150.78622
   66   505.0000   -150.78607
   67   510.0000   -150.78592
   68   515.0000   -150.78578
   69   520.0000   -150.78566
   70   525.0000   -150.78555
   71   530.0000   -150.78548
   72   535.0000   -150.78543
   73   540.0000   -150.78541
 ----  ---------  -----------
  
 1\1\GINC-C0700A-S1\Scan\RHF\CC-pVDZ\H2O2\LE.CHEN\07-Oct-2021\1\\# scan
  hf/cc-pvdz geom=connectivity\\Title\\0,1\O\O,1,B1\H,1,B2,2,A2\H,2,B3,
 1,A3,3,D3,0\\B1=1.4016\B2=0.9474\A2=100.7334\B3=0.9474\A3=100.7334\D3=
 180.,s,72,5.\\Version=AS64L-G09RevD.01\HF=-150.7854114,-150.7854278,-1
 50.7854761,-150.7855542,-150.7856584,-150.7857837,-150.7859236,-150.78
 60704,-150.7862153,-150.7863485,-150.7864596,-150.7865374,-150.7865707
 ,-150.7865485,-150.78646,-150.7862957,-150.7860469,-150.785707,-150.78
 52709,-150.7847362,-150.7841025,-150.7833724,-150.7825513,-150.7816472
 ,-150.7806717,-150.779639,-150.7785669,-150.7774763,-150.7763909,-150.
 7753372,-150.7743433,-150.7734381,-150.7726502,-150.7720059,-150.77152
 78,-150.7712336,-150.7711343,-150.7712336,-150.7715278,-150.7720059,-1
 50.7726502,-150.7734381,-150.7743433,-150.7753372,-150.7763909,-150.77
 74763,-150.7785669,-150.779639,-150.7806717,-150.7816472,-150.7825513,
 -150.7833724,-150.7841025,-150.7847362,-150.7852709,-150.785707,-150.7
 860469,-150.7862957,-150.78646,-150.7865485,-150.7865707,-150.7865374,
 -150.7864596,-150.7863485,-150.7862153,-150.7860704,-150.7859236,-150.
 7857837,-150.7856584,-150.7855542,-150.7854761,-150.7854278,-150.78541
 14\RMSD=1.988e-09,2.154e-09,2.258e-09,2.439e-09,2.685e-09,2.993e-09,3.
 367e-09,3.821e-09,4.373e-09,5.039e-09,5.827e-09,6.734e-09,7.751e-09,8.
 859e-09,1.154e-09,1.156e-09,1.165e-09,1.194e-09,1.251e-09,1.337e-09,1.
 440e-09,1.535e-09,1.587e-09,9.877e-09,8.981e-09,8.435e-09,8.096e-09,7.
 808e-09,7.453e-09,6.958e-09,6.280e-09,5.370e-09,4.154e-09,3.060e-09,2.
 602e-09,2.115e-09,2.234e-09,2.105e-09,2.826e-09,3.748e-09,4.691e-09,5.
 508e-09,6.204e-09,6.741e-09,7.114e-09,7.335e-09,7.447e-09,7.546e-09,7.
 787e-09,8.354e-09,9.379e-09,1.605e-09,1.511e-09,1.378e-09,1.247e-09,1.
 142e-09,1.067e-09,1.014e-09,9.661e-09,8.614e-09,7.543e-09,6.771e-09,5.
 964e-09,5.248e-09,4.624e-09,4.088e-09,3.628e-09,3.231e-09,2.888e-09,2.
 598e-09,2.368e-09,2.210e-09,2.369e-09\PG=C02H [SGH(H2O2)]\\@


 YOU CAN LEAD A BOY TO COLLEGE....
 BUT YOU CANNOT MAKE HIM THINK....
           ELBERT HUBBARD
 Job cpu time:       0 days  0 hours  0 minutes 26.7 seconds.
 File lengths (MBytes):  RWF=      5 Int=      0 D2E=      0 Chk=      2 Scr=      1
 Normal termination of Gaussian 09 at Thu Oct  7 13:31:16 2021.
