 Entering Gaussian System, Link 0=g09
 Initial command:
 /apps/gaussian/g09/amd-sse4a/l1.exe "/blue/chm6586/le.chen/hw3/q2/Gau-19850.inp" -scrdir="/blue/chm6586/le.chen/hw3/q2/"
 Entering Link 1 = /apps/gaussian/g09/amd-sse4a/l1.exe PID=     19851.
  
 Copyright (c) 1988,1990,1992,1993,1995,1998,2003,2009,2013,
            Gaussian, Inc.  All Rights Reserved.
  
 This is part of the Gaussian(R) 09 program.  It is based on
 the Gaussian(R) 03 system (copyright 2003, Gaussian, Inc.),
 the Gaussian(R) 98 system (copyright 1998, Gaussian, Inc.),
 the Gaussian(R) 94 system (copyright 1995, Gaussian, Inc.),
 the Gaussian 92(TM) system (copyright 1992, Gaussian, Inc.),
 the Gaussian 90(TM) system (copyright 1990, Gaussian, Inc.),
 the Gaussian 88(TM) system (copyright 1988, Gaussian, Inc.),
 the Gaussian 86(TM) system (copyright 1986, Carnegie Mellon
 University), and the Gaussian 82(TM) system (copyright 1983,
 Carnegie Mellon University). Gaussian is a federally registered
 trademark of Gaussian, Inc.
  
 This software contains proprietary and confidential information,
 including trade secrets, belonging to Gaussian, Inc.
  
 This software is provided under written license and may be
 used, copied, transmitted, or stored only in accord with that
 written license.
  
 The following legend is applicable only to US Government
 contracts under FAR:
  
                    RESTRICTED RIGHTS LEGEND
  
 Use, reproduction and disclosure by the US Government is
 subject to restrictions as set forth in subparagraphs (a)
 and (c) of the Commercial Computer Software - Restricted
 Rights clause in FAR 52.227-19.
  
 Gaussian, Inc.
 340 Quinnipiac St., Bldg. 40, Wallingford CT 06492
  
  
 ---------------------------------------------------------------
 Warning -- This program may not be used in any manner that
 competes with the business of Gaussian, Inc. or will provide
 assistance to any competitor of Gaussian, Inc.  The licensee
 of this program is prohibited from giving any competitor of
 Gaussian, Inc. access to this program.  By using this program,
 the user acknowledges that Gaussian, Inc. is engaged in the
 business of creating and licensing software in the field of
 computational chemistry and represents and warrants to the
 licensee that it is not a competitor of Gaussian, Inc. and that
 it will not use this program in any manner prohibited above.
 ---------------------------------------------------------------
  

 Cite this work as:
 Gaussian 09, Revision D.01,
 M. J. Frisch, G. W. Trucks, H. B. Schlegel, G. E. Scuseria, 
 M. A. Robb, J. R. Cheeseman, G. Scalmani, V. Barone, B. Mennucci, 
 G. A. Petersson, H. Nakatsuji, M. Caricato, X. Li, H. P. Hratchian, 
 A. F. Izmaylov, J. Bloino, G. Zheng, J. L. Sonnenberg, M. Hada, 
 M. Ehara, K. Toyota, R. Fukuda, J. Hasegawa, M. Ishida, T. Nakajima, 
 Y. Honda, O. Kitao, H. Nakai, T. Vreven, J. A. Montgomery, Jr., 
 J. E. Peralta, F. Ogliaro, M. Bearpark, J. J. Heyd, E. Brothers, 
 K. N. Kudin, V. N. Staroverov, T. Keith, R. Kobayashi, J. Normand, 
 K. Raghavachari, A. Rendell, J. C. Burant, S. S. Iyengar, J. Tomasi, 
 M. Cossi, N. Rega, J. M. Millam, M. Klene, J. E. Knox, J. B. Cross, 
 V. Bakken, C. Adamo, J. Jaramillo, R. Gomperts, R. E. Stratmann, 
 O. Yazyev, A. J. Austin, R. Cammi, C. Pomelli, J. W. Ochterski, 
 R. L. Martin, K. Morokuma, V. G. Zakrzewski, G. A. Voth, 
 P. Salvador, J. J. Dannenberg, S. Dapprich, A. D. Daniels, 
 O. Farkas, J. B. Foresman, J. V. Ortiz, J. Cioslowski, 
 and D. J. Fox, Gaussian, Inc., Wallingford CT, 2013.
 
 ******************************************
 Gaussian 09:  AS64L-G09RevD.01 24-Apr-2013
                 6-Oct-2021 
 ******************************************
 ------------------------------
 #n hf/cc-pvdz Opt=(maxcyc=500)
 ------------------------------
 1/6=500,18=20,19=15,38=1/1,3;
 2/9=110,12=2,17=6,18=5,40=1/2;
 3/5=16,11=9,16=1,25=1,30=1,71=1/1,2,3;
 4//1;
 5/5=2,38=5/2;
 6/7=2,8=2,9=2,10=2,28=1/1;
 7//1,2,3,16;
 1/6=500,18=20,19=15/3(2);
 2/9=110/2;
 99//99;
 2/9=110/2;
 3/5=16,11=9,16=1,25=1,30=1,71=1/1,2,3;
 4/5=5,16=3,69=1/1;
 5/5=2,38=5/2;
 7//1,2,3,16;
 1/6=500,18=20,19=15/3(-5);
 2/9=110/2;
 6/7=2,8=2,9=2,10=2,19=2,28=1/1;
 99/9=1/99;
 -----
 Title
 -----
 Symbolic Z-matrix:
 Charge =  0 Multiplicity = 1
 O
 O                    1    B1
 H                    1    B2       2    A2
 H                    2    B3       1    A3       3    D3       0
       Variables:
  B1                    1.45331                  
  B2                    0.97616                  
  A2                   96.57214                  
  B3                    0.97616                  
  A3                   96.57214                  
  D3                  180.                       
 

 GradGradGradGradGradGradGradGradGradGradGradGradGradGradGradGradGradGrad
 Berny optimization.
 Initialization pass.
                           ----------------------------
                           !    Initial Parameters    !
                           ! (Angstroms and Degrees)  !
 --------------------------                            --------------------------
 ! Name  Definition              Value          Derivative Info.                !
 --------------------------------------------------------------------------------
 ! R1    R(1,2)                  1.4533         estimate D2E/DX2                !
 ! R2    R(1,3)                  0.9762         estimate D2E/DX2                !
 ! R3    R(2,4)                  0.9762         estimate D2E/DX2                !
 ! A1    A(2,1,3)               96.5721         estimate D2E/DX2                !
 ! A2    A(1,2,4)               96.5721         estimate D2E/DX2                !
 ! D1    D(3,1,2,4)            180.0            estimate D2E/DX2                !
 --------------------------------------------------------------------------------
 Trust Radius=3.00D-01 FncErr=1.00D-07 GrdErr=1.00D-07
 Number of steps in this run=    100 maximum allowed number of steps=    100.
 GradGradGradGradGradGradGradGradGradGradGradGradGradGradGradGradGradGrad

                          Input orientation:                          
 ---------------------------------------------------------------------
 Center     Atomic      Atomic             Coordinates (Angstroms)
 Number     Number       Type             X           Y           Z
 ---------------------------------------------------------------------
      1          8           0        0.000000    0.000000    0.000000
      2          8           0        0.000000    0.000000    1.453310
      3          1           0        0.969745    0.000000   -0.111726
      4          1           0       -0.969745    0.000000    1.565036
 ---------------------------------------------------------------------
                    Distance matrix (angstroms):
                    1          2          3          4
     1  O    0.000000
     2  O    1.453310   0.000000
     3  H    0.976160   1.841125   0.000000
     4  H    1.841125   0.976160   2.563816   0.000000
 Stoichiometry    H2O2
 Framework group  C2H[SGH(H2O2)]
 Deg. of freedom     3
 Full point group                 C2H     NOp   4
 Largest Abelian subgroup         C2H     NOp   4
 Largest concise Abelian subgroup C2      NOp   2
                         Standard orientation:                         
 ---------------------------------------------------------------------
 Center     Atomic      Atomic             Coordinates (Angstroms)
 Number     Number       Type             X           Y           Z
 ---------------------------------------------------------------------
      1          8           0        0.000000    0.726655    0.000000
      2          8           0        0.000000   -0.726655    0.000000
      3          1           0        0.969745    0.838381    0.000000
      4          1           0       -0.969745   -0.838381    0.000000
 ---------------------------------------------------------------------
 Rotational constants (GHZ):    291.5360184     27.3617142     25.0140544
 Standard basis: CC-pVDZ (5D, 7F)
 There are    15 symmetry adapted cartesian basis functions of AG  symmetry.
 There are     5 symmetry adapted cartesian basis functions of BG  symmetry.
 There are     5 symmetry adapted cartesian basis functions of AU  symmetry.
 There are    15 symmetry adapted cartesian basis functions of BU  symmetry.
 There are    14 symmetry adapted basis functions of AG  symmetry.
 There are     5 symmetry adapted basis functions of BG  symmetry.
 There are     5 symmetry adapted basis functions of AU  symmetry.
 There are    14 symmetry adapted basis functions of BU  symmetry.
    38 basis functions,    80 primitive gaussians,    40 cartesian basis functions
     9 alpha electrons        9 beta electrons
       nuclear repulsion energy        36.7823359352 Hartrees.
 NAtoms=    4 NActive=    4 NUniq=    2 SFac= 4.00D+00 NAtFMM=   60 NAOKFM=F Big=F
 Integral buffers will be    131072 words long.
 Raffenetti 1 integral format.
 Two-electron integral symmetry is turned on.
 One-electron integrals computed using PRISM.
 NBasis=    38 RedAO= T EigKep=  2.43D-02  NBF=    14     5     5    14
 NBsUse=    38 1.00D-06 EigRej= -1.00D+00 NBFU=    14     5     5    14
 ExpMin= 1.22D-01 ExpMax= 1.17D+04 ExpMxC= 4.01D+02 IAcc=1 IRadAn=         1 AccDes= 0.00D+00
 Harris functional with IExCor=  205 and IRadAn=       1 diagonalized for initial guess.
 HarFok:  IExCor=  205 AccDes= 0.00D+00 IRadAn=         1 IDoV= 1 UseB2=F ITyADJ=14
 ICtDFT=  3500011 ScaDFX=  1.000000  1.000000  1.000000  1.000000
 FoFCou: FMM=F IPFlag=           0 FMFlag=      100000 FMFlg1=           0
         NFxFlg=           0 DoJE=T BraDBF=F KetDBF=T FulRan=T
         wScrn=  0.000000 ICntrl=     500 IOpCl=  0 I1Cent=   200000004 NGrid=           0
         NMat0=    1 NMatS0=      1 NMatT0=    0 NMatD0=    1 NMtDS0=    0 NMtDT0=    0
 Petite list used in FoFCou.
 Initial guess orbital symmetries:
       Occupied  (BU) (AG) (AG) (BU) (BU) (AG) (AU) (AG) (BG)
       Virtual   (BU) (AG) (BU) (AG) (BU) (BU) (AU) (AG) (BG) (BU)
                 (AG) (BG) (BU) (AU) (AG) (AG) (BU) (AG) (BU) (AU)
                 (AG) (BU) (BG) (AU) (BG) (AG) (BU) (AG) (BU)
 The electronic state of the initial guess is 1-AG.
 Keep R1 ints in memory in symmetry-blocked form, NReq=1143257.
 Requested convergence on RMS density matrix=1.00D-08 within 128 cycles.
 Requested convergence on MAX density matrix=1.00D-06.
 Requested convergence on             energy=1.00D-06.
 No special actions if energy rises.
 SCF Done:  E(RHF) =  -150.781402469     A.U. after   10 cycles
            NFock= 10  Conv=0.66D-08     -V/T= 2.0010

 **********************************************************************

            Population analysis using the SCF density.

 **********************************************************************

 Orbital symmetries:
       Occupied  (AG) (BU) (AG) (BU) (BU) (AG) (AU) (AG) (BG)
       Virtual   (AG) (BU) (BU) (BU) (AG) (AG) (BU) (AU) (BU) (BG)
                 (AG) (BG) (AU) (BU) (AG) (AG) (BU) (AG) (BU) (AU)
                 (AG) (BU) (BG) (AU) (BG) (AG) (BU) (AG) (BU)
 The electronic state is 1-AG.
 Alpha  occ. eigenvalues --  -20.62275 -20.62247  -1.46707  -1.20183  -0.72304
 Alpha  occ. eigenvalues --   -0.64900  -0.61949  -0.54007  -0.44981
 Alpha virt. eigenvalues --    0.18807   0.19601   0.29905   0.80821   0.81047
 Alpha virt. eigenvalues --    1.09154   1.11445   1.14323   1.24494   1.25762
 Alpha virt. eigenvalues --    1.35851   1.52041   1.56274   1.56919   1.74759
 Alpha virt. eigenvalues --    1.93042   2.08591   2.37010   2.43477   2.62513
 Alpha virt. eigenvalues --    2.73953   3.00828   3.22059   3.29584   3.36720
 Alpha virt. eigenvalues --    3.55518   3.90210   3.90835   4.25535
          Condensed to atoms (all electrons):
               1          2          3          4
     1  O    7.775419   0.112894   0.351962  -0.027721
     2  O    0.112894   7.775419  -0.027721   0.351962
     3  H    0.351962  -0.027721   0.460769   0.002435
     4  H   -0.027721   0.351962   0.002435   0.460769
 Mulliken charges:
               1
     1  O   -0.212554
     2  O   -0.212554
     3  H    0.212554
     4  H    0.212554
 Sum of Mulliken charges =   0.00000
 Mulliken charges with hydrogens summed into heavy atoms:
               1
     1  O    0.000000
     2  O    0.000000
 Electronic spatial extent (au):  <R**2>=             65.3793
 Charge=              0.0000 electrons
 Dipole moment (field-independent basis, Debye):
    X=              0.0000    Y=              0.0000    Z=              0.0000  Tot=              0.0000
 Quadrupole moment (field-independent basis, Debye-Ang):
   XX=             -7.5819   YY=            -11.5338   ZZ=            -12.4560
   XY=              3.4511   XZ=              0.0000   YZ=              0.0000
 Traceless Quadrupole moment (field-independent basis, Debye-Ang):
   XX=              2.9420   YY=             -1.0099   ZZ=             -1.9321
   XY=              3.4511   XZ=              0.0000   YZ=              0.0000
 Octapole moment (field-independent basis, Debye-Ang**2):
  XXX=              0.0000  YYY=              0.0000  ZZZ=              0.0000  XYY=              0.0000
  XXY=              0.0000  XXZ=              0.0000  XZZ=              0.0000  YZZ=              0.0000
  YYZ=              0.0000  XYZ=              0.0000
 Hexadecapole moment (field-independent basis, Debye-Ang**3):
 XXXX=             -7.2298 YYYY=            -43.1970 ZZZZ=             -8.5118 XXXY=              1.6357
 XXXZ=              0.0000 YYYX=              0.8855 YYYZ=              0.0000 ZZZX=              0.0000
 ZZZY=              0.0000 XXYY=             -6.9886 XXZZ=             -3.4432 YYZZ=             -9.7297
 XXYZ=              0.0000 YYXZ=              0.0000 ZZXY=             -0.6234
 N-N= 3.678233593521D+01 E-N=-4.319714780999D+02  KE= 1.506350697219D+02
 Symmetry AG   KE= 7.261938265312D+01
 Symmetry BG   KE= 5.376198606221D+00
 Symmetry AU   KE= 4.369850014595D+00
 Symmetry BU   KE= 6.826963844797D+01
 Calling FoFJK, ICntrl=      2127 FMM=F ISym2X=1 I1Cent= 0 IOpClX= 0 NMat=1 NMatS=1 NMatT=0.
 ***** Axes restored to original set *****
 -------------------------------------------------------------------
 Center     Atomic                   Forces (Hartrees/Bohr)
 Number     Number              X              Y              Z
 -------------------------------------------------------------------
      1        8           0.040814630    0.000000000    0.029226490
      2        8          -0.040814630    0.000000000   -0.029226490
      3        1          -0.030192984    0.000000000   -0.004480502
      4        1           0.030192984    0.000000000    0.004480502
 -------------------------------------------------------------------
 Cartesian Forces:  Max     0.040814630 RMS     0.023985110

 GradGradGradGradGradGradGradGradGradGradGradGradGradGradGradGradGradGrad
 Berny optimization.
 FormGI is forming the generalized inverse of G from B-inverse, IUseBI=4.
 Internal  Forces:  Max     0.029481760 RMS     0.021510390
 Search for a local minimum.
 Step number   1 out of a maximum of  100
 All quantities printed in internal units (Hartrees-Bohrs-Radians)
 Mixed Optimization -- RFO/linear search
 Second derivative matrix not updated -- first step.
 The second derivative matrix:
                          R1        R2        R3        A1        A2
           R1           0.37815
           R2           0.00000   0.52138
           R3           0.00000   0.00000   0.52138
           A1           0.00000   0.00000   0.00000   0.16000
           A2           0.00000   0.00000   0.00000   0.00000   0.16000
           D1           0.00000   0.00000   0.00000   0.00000   0.00000
                          D1
           D1           0.00590
 ITU=  0
     Eigenvalues ---    0.00590   0.16000   0.16000   0.37815   0.52138
     Eigenvalues ---    0.52138
 RFO step:  Lambda=-7.41697576D-03 EMin= 5.89615780D-03
 Linear search not attempted -- first point.
 Iteration  1 RMS(Cart)=  0.04586495 RMS(Int)=  0.00201301
 Iteration  2 RMS(Cart)=  0.00293782 RMS(Int)=  0.00000155
 Iteration  3 RMS(Cart)=  0.00000106 RMS(Int)=  0.00000000
 Iteration  4 RMS(Cart)=  0.00000000 RMS(Int)=  0.00000000
 ClnCor:  largest displacement from symmetrization is 2.36D-12 for atom     4.
 Variable       Old X    -DE/DX   Delta X   Delta X   Delta X     New X
                                 (Linear)    (Quad)   (Total)
    R1        2.74636  -0.02475   0.00000  -0.06418  -0.06418   2.68218
    R2        1.84468  -0.02948   0.00000  -0.05575  -0.05575   1.78892
    R3        1.84468  -0.02948   0.00000  -0.05575  -0.05575   1.78892
    A1        1.68550   0.01459   0.00000   0.08712   0.08712   1.77262
    A2        1.68550   0.01459   0.00000   0.08712   0.08712   1.77262
    D1        3.14159   0.00000   0.00000   0.00000   0.00000   3.14159
         Item               Value     Threshold  Converged?
 Maximum Force            0.029482     0.000450     NO 
 RMS     Force            0.021510     0.000300     NO 
 Maximum Displacement     0.058481     0.001800     NO 
 RMS     Displacement     0.044661     0.001200     NO 
 Predicted change in Energy=-3.803115D-03
 GradGradGradGradGradGradGradGradGradGradGradGradGradGradGradGradGradGrad

                          Input orientation:                          
 ---------------------------------------------------------------------
 Center     Atomic      Atomic             Coordinates (Angstroms)
 Number     Number       Type             X           Y           Z
 ---------------------------------------------------------------------
      1          8           0        0.030947    0.000000    0.017657
      2          8           0       -0.030947    0.000000    1.435653
      3          1           0        0.965782    0.000000   -0.131485
      4          1           0       -0.965782    0.000000    1.584795
 ---------------------------------------------------------------------
                    Distance matrix (angstroms):
                    1          2          3          4
     1  O    0.000000
     2  O    1.419347   0.000000
     3  H    0.946657   1.857253   0.000000
     4  H    1.857253   0.946657   2.583903   0.000000
 Stoichiometry    H2O2
 Framework group  C2H[SGH(H2O2)]
 Deg. of freedom     3
 Full point group                 C2H     NOp   4
 Largest Abelian subgroup         C2H     NOp   4
 Largest concise Abelian subgroup C2      NOp   2
                         Standard orientation:                         
 ---------------------------------------------------------------------
 Center     Atomic      Atomic             Coordinates (Angstroms)
 Number     Number       Type             X           Y           Z
 ---------------------------------------------------------------------
      1          8           0        0.000000    0.709673    0.000000
      2          8           0        0.000000   -0.709673    0.000000
      3          1           0        0.927442    0.899439    0.000000
      4          1           0       -0.927442   -0.899439    0.000000
 ---------------------------------------------------------------------
 Rotational constants (GHZ):    324.1565302     28.2073410     25.9492943
 Standard basis: CC-pVDZ (5D, 7F)
 There are    15 symmetry adapted cartesian basis functions of AG  symmetry.
 There are     5 symmetry adapted cartesian basis functions of BG  symmetry.
 There are     5 symmetry adapted cartesian basis functions of AU  symmetry.
 There are    15 symmetry adapted cartesian basis functions of BU  symmetry.
 There are    14 symmetry adapted basis functions of AG  symmetry.
 There are     5 symmetry adapted basis functions of BG  symmetry.
 There are     5 symmetry adapted basis functions of AU  symmetry.
 There are    14 symmetry adapted basis functions of BU  symmetry.
    38 basis functions,    80 primitive gaussians,    40 cartesian basis functions
     9 alpha electrons        9 beta electrons
       nuclear repulsion energy        37.5687426277 Hartrees.
 NAtoms=    4 NActive=    4 NUniq=    2 SFac= 4.00D+00 NAtFMM=   60 NAOKFM=F Big=F
 Integral buffers will be    131072 words long.
 Raffenetti 1 integral format.
 Two-electron integral symmetry is turned on.
 One-electron integrals computed using PRISM.
 NBasis=    38 RedAO= T EigKep=  2.27D-02  NBF=    14     5     5    14
 NBsUse=    38 1.00D-06 EigRej= -1.00D+00 NBFU=    14     5     5    14
 Initial guess from the checkpoint file:  "/blue/chm6586/le.chen/hw3/q2/Gau-19851.chk"
 B after Tr=     0.000000    0.000000    0.000000
         Rot=    0.999966    0.000000    0.000000   -0.008191 Ang=  -0.94 deg.
 Initial guess orbital symmetries:
       Occupied  (AG) (BU) (AG) (BU) (BU) (AG) (AU) (AG) (BG)
       Virtual   (AG) (AG) (AG) (AG) (AG) (AG) (AG) (AG) (AG) (AG)
                 (BG) (BG) (BG) (BG) (AU) (AU) (AU) (AU) (BU) (BU)
                 (BU) (BU) (BU) (BU) (BU) (BU) (BU) (BU) (BU)
 ExpMin= 1.22D-01 ExpMax= 1.17D+04 ExpMxC= 4.01D+02 IAcc=1 IRadAn=         1 AccDes= 0.00D+00
 Harris functional with IExCor=  205 and IRadAn=       1 diagonalized for initial guess.
 HarFok:  IExCor=  205 AccDes= 0.00D+00 IRadAn=         1 IDoV= 1 UseB2=F ITyADJ=14
 ICtDFT=  3500011 ScaDFX=  1.000000  1.000000  1.000000  1.000000
 FoFCou: FMM=F IPFlag=           0 FMFlag=      100000 FMFlg1=           0
         NFxFlg=           0 DoJE=T BraDBF=F KetDBF=T FulRan=T
         wScrn=  0.000000 ICntrl=     500 IOpCl=  0 I1Cent=   200000004 NGrid=           0
         NMat0=    1 NMatS0=      1 NMatT0=    0 NMatD0=    1 NMtDS0=    0 NMtDT0=    0
 Petite list used in FoFCou.
 Keep R1 ints in memory in symmetry-blocked form, NReq=1143341.
 Requested convergence on RMS density matrix=1.00D-08 within 128 cycles.
 Requested convergence on MAX density matrix=1.00D-06.
 Requested convergence on             energy=1.00D-06.
 No special actions if energy rises.
 SCF Done:  E(RHF) =  -150.785047496     A.U. after   10 cycles
            NFock= 10  Conv=0.18D-08     -V/T= 2.0000
 Calling FoFJK, ICntrl=      2127 FMM=F ISym2X=1 I1Cent= 0 IOpClX= 0 NMat=1 NMatS=1 NMatT=0.
 ***** Axes restored to original set *****
 -------------------------------------------------------------------
 Center     Atomic                   Forces (Hartrees/Bohr)
 Number     Number              X              Y              Z
 -------------------------------------------------------------------
      1        8          -0.007260635    0.000000000    0.011640559
      2        8           0.007260635    0.000000000   -0.011640559
      3        1           0.001512020    0.000000000    0.003613665
      4        1          -0.001512020    0.000000000   -0.003613665
 -------------------------------------------------------------------
 Cartesian Forces:  Max     0.011640559 RMS     0.005824721

 GradGradGradGradGradGradGradGradGradGradGradGradGradGradGradGradGradGrad
 Berny optimization.
 Using GEDIIS/GDIIS optimizer.
 FormGI is forming the generalized inverse of G from B-inverse, IUseBI=4.
 Internal  Forces:  Max     0.015490396 RMS     0.007465598
 Search for a local minimum.
 Step number   2 out of a maximum of  100
 All quantities printed in internal units (Hartrees-Bohrs-Radians)
 Mixed Optimization -- RFO/linear search
 Update second derivatives using D2CorX and points    1    2
 DE= -3.65D-03 DEPred=-3.80D-03 R= 9.58D-01
 TightC=F SS=  1.41D+00  RLast= 1.60D-01 DXNew= 5.0454D-01 4.7921D-01
 Trust test= 9.58D-01 RLast= 1.60D-01 DXMaxT set to 4.79D-01
 The second derivative matrix:
                          R1        R2        R3        A1        A2
           R1           0.30776
           R2          -0.06112   0.52435
           R3          -0.06112   0.00297   0.52435
           A1           0.02113  -0.02829  -0.02829   0.19247
           A2           0.02113  -0.02829  -0.02829   0.03247   0.19247
           D1           0.00000   0.00000   0.00000   0.00000   0.00000
                          D1
           D1           0.00590
 ITU=  1  0
 Use linear search instead of GDIIS.
     Eigenvalues ---    0.00590   0.16000   0.21193   0.27919   0.52138
     Eigenvalues ---    0.56890
 RFO step:  Lambda=-1.10851690D-03 EMin= 5.89615780D-03
 Quartic linear search produced a step of -0.03600.
 Iteration  1 RMS(Cart)=  0.03512622 RMS(Int)=  0.00026930
 Iteration  2 RMS(Cart)=  0.00018569 RMS(Int)=  0.00000003
 Iteration  3 RMS(Cart)=  0.00000004 RMS(Int)=  0.00000000
 ClnCor:  largest displacement from symmetrization is 8.40D-14 for atom     2.
 Variable       Old X    -DE/DX   Delta X   Delta X   Delta X     New X
                                 (Linear)    (Quad)   (Total)
    R1        2.68218  -0.01549   0.00231  -0.05164  -0.04933   2.63284
    R2        1.78892   0.00092   0.00201  -0.00892  -0.00692   1.78201
    R3        1.78892   0.00092   0.00201  -0.00892  -0.00692   1.78201
    A1        1.77262  -0.00681  -0.00314  -0.02386  -0.02699   1.74563
    A2        1.77262  -0.00681  -0.00314  -0.02386  -0.02699   1.74563
    D1        3.14159   0.00000   0.00000   0.00000   0.00000   3.14159
         Item               Value     Threshold  Converged?
 Maximum Force            0.015490     0.000450     NO 
 RMS     Force            0.007466     0.000300     NO 
 Maximum Displacement     0.041849     0.001800     NO 
 RMS     Displacement     0.035057     0.001200     NO 
 Predicted change in Energy=-5.619862D-04
 GradGradGradGradGradGradGradGradGradGradGradGradGradGradGradGradGradGrad

                          Input orientation:                          
 ---------------------------------------------------------------------
 Center     Atomic      Atomic             Coordinates (Angstroms)
 Number     Number       Type             X           Y           Z
 ---------------------------------------------------------------------
      1          8           0        0.018273    0.000000    0.030274
      2          8           0       -0.018273    0.000000    1.423036
      3          1           0        0.950877    0.000000   -0.109339
      4          1           0       -0.950877    0.000000    1.562649
 ---------------------------------------------------------------------
                    Distance matrix (angstroms):
                    1          2          3          4
     1  O    0.000000
     2  O    1.393241   0.000000
     3  H    0.942997   1.813125   0.000000
     4  H    1.813125   0.942997   2.532234   0.000000
 Stoichiometry    H2O2
 Framework group  C2H[SGH(H2O2)]
 Deg. of freedom     3
 Full point group                 C2H     NOp   4
 Largest Abelian subgroup         C2H     NOp   4
 Largest concise Abelian subgroup C2      NOp   2
                         Standard orientation:                         
 ---------------------------------------------------------------------
 Center     Atomic      Atomic             Coordinates (Angstroms)
 Number     Number       Type             X           Y           Z
 ---------------------------------------------------------------------
      1          8           0        0.000000    0.696620    0.000000
      2          8           0        0.000000   -0.696620    0.000000
      3          1           0        0.928621    0.860648    0.000000
      4          1           0       -0.928621   -0.860648    0.000000
 ---------------------------------------------------------------------
 Rotational constants (GHZ):    321.8631199     29.4080558     26.9460441
 Standard basis: CC-pVDZ (5D, 7F)
 There are    15 symmetry adapted cartesian basis functions of AG  symmetry.
 There are     5 symmetry adapted cartesian basis functions of BG  symmetry.
 There are     5 symmetry adapted cartesian basis functions of AU  symmetry.
 There are    15 symmetry adapted cartesian basis functions of BU  symmetry.
 There are    14 symmetry adapted basis functions of AG  symmetry.
 There are     5 symmetry adapted basis functions of BG  symmetry.
 There are     5 symmetry adapted basis functions of AU  symmetry.
 There are    14 symmetry adapted basis functions of BU  symmetry.
    38 basis functions,    80 primitive gaussians,    40 cartesian basis functions
     9 alpha electrons        9 beta electrons
       nuclear repulsion energy        38.1656872756 Hartrees.
 NAtoms=    4 NActive=    4 NUniq=    2 SFac= 4.00D+00 NAtFMM=   60 NAOKFM=F Big=F
 Integral buffers will be    131072 words long.
 Raffenetti 1 integral format.
 Two-electron integral symmetry is turned on.
 One-electron integrals computed using PRISM.
 NBasis=    38 RedAO= T EigKep=  2.12D-02  NBF=    14     5     5    14
 NBsUse=    38 1.00D-06 EigRej= -1.00D+00 NBFU=    14     5     5    14
 Initial guess from the checkpoint file:  "/blue/chm6586/le.chen/hw3/q2/Gau-19851.chk"
 B after Tr=     0.000000    0.000000    0.000000
         Rot=    0.999995    0.000000    0.000000    0.003313 Ang=   0.38 deg.
 Initial guess orbital symmetries:
       Occupied  (AG) (BU) (AG) (BU) (BU) (AG) (AU) (AG) (BG)
       Virtual   (AG) (AG) (AG) (AG) (AG) (AG) (AG) (AG) (AG) (AG)
                 (BG) (BG) (BG) (BG) (AU) (AU) (AU) (AU) (BU) (BU)
                 (BU) (BU) (BU) (BU) (BU) (BU) (BU) (BU) (BU)
 ExpMin= 1.22D-01 ExpMax= 1.17D+04 ExpMxC= 4.01D+02 IAcc=1 IRadAn=         1 AccDes= 0.00D+00
 Harris functional with IExCor=  205 and IRadAn=       1 diagonalized for initial guess.
 HarFok:  IExCor=  205 AccDes= 0.00D+00 IRadAn=         1 IDoV= 1 UseB2=F ITyADJ=14
 ICtDFT=  3500011 ScaDFX=  1.000000  1.000000  1.000000  1.000000
 FoFCou: FMM=F IPFlag=           0 FMFlag=      100000 FMFlg1=           0
         NFxFlg=           0 DoJE=T BraDBF=F KetDBF=T FulRan=T
         wScrn=  0.000000 ICntrl=     500 IOpCl=  0 I1Cent=   200000004 NGrid=           0
         NMat0=    1 NMatS0=      1 NMatT0=    0 NMatD0=    1 NMtDS0=    0 NMtDT0=    0
 Petite list used in FoFCou.
 Keep R1 ints in memory in symmetry-blocked form, NReq=1143397.
 Requested convergence on RMS density matrix=1.00D-08 within 128 cycles.
 Requested convergence on MAX density matrix=1.00D-06.
 Requested convergence on             energy=1.00D-06.
 No special actions if energy rises.
 SCF Done:  E(RHF) =  -150.785239830     A.U. after    8 cycles
            NFock=  8  Conv=0.76D-08     -V/T= 1.9994
 Calling FoFJK, ICntrl=      2127 FMM=F ISym2X=1 I1Cent= 0 IOpClX= 0 NMat=1 NMatS=1 NMatT=0.
 ***** Axes restored to original set *****
 -------------------------------------------------------------------
 Center     Atomic                   Forces (Hartrees/Bohr)
 Number     Number              X              Y              Z
 -------------------------------------------------------------------
      1        8          -0.000262641    0.000000000   -0.005084151
      2        8           0.000262641    0.000000000    0.005084151
      3        1           0.004399626    0.000000000   -0.003578037
      4        1          -0.004399626    0.000000000    0.003578037
 -------------------------------------------------------------------
 Cartesian Forces:  Max     0.005084151 RMS     0.003111179

 GradGradGradGradGradGradGradGradGradGradGradGradGradGradGradGradGradGrad
 Berny optimization.
 Using GEDIIS/GDIIS optimizer.
 FormGI is forming the generalized inverse of G from B-inverse, IUseBI=4.
 Internal  Forces:  Max     0.008767717 RMS     0.005438472
 Search for a local minimum.
 Step number   3 out of a maximum of  100
 All quantities printed in internal units (Hartrees-Bohrs-Radians)
 Mixed Optimization -- RFO/linear search
 Update second derivatives using D2CorX and points    1    2    3
 DE= -1.92D-04 DEPred=-5.62D-04 R= 3.42D-01
 Trust test= 3.42D-01 RLast= 6.31D-02 DXMaxT set to 4.79D-01
 The second derivative matrix:
                          R1        R2        R3        A1        A2
           R1           0.39503
           R2          -0.00490   0.55153
           R3          -0.00490   0.03015   0.55153
           A1           0.08962   0.00325   0.00325   0.21872
           A2           0.08962   0.00325   0.00325   0.05872   0.21872
           D1           0.00000   0.00000   0.00000   0.00000   0.00000
                          D1
           D1           0.00590
 ITU=  0  1  0
 Use linear search instead of GDIIS.
     Eigenvalues ---    0.00590   0.16000   0.19630   0.47589   0.52138
     Eigenvalues ---    0.58194
 RFO step:  Lambda=-4.15430051D-05 EMin= 5.89615780D-03
 Quartic linear search produced a step of -0.39362.
 Iteration  1 RMS(Cart)=  0.01581199 RMS(Int)=  0.00004814
 Iteration  2 RMS(Cart)=  0.00003309 RMS(Int)=  0.00000000
 Iteration  3 RMS(Cart)=  0.00000000 RMS(Int)=  0.00000000
 ClnCor:  largest displacement from symmetrization is 1.87D-14 for atom     4.
 Variable       Old X    -DE/DX   Delta X   Delta X   Delta X     New X
                                 (Linear)    (Quad)   (Total)
    R1        2.63284   0.00877   0.01942  -0.00367   0.01575   2.64860
    R2        1.78201   0.00488   0.00272   0.00557   0.00829   1.79030
    R3        1.78201   0.00488   0.00272   0.00557   0.00829   1.79030
    A1        1.74563   0.00515   0.01063   0.00188   0.01250   1.75813
    A2        1.74563   0.00515   0.01063   0.00188   0.01250   1.75813
    D1        3.14159   0.00000   0.00000   0.00000   0.00000   3.14159
         Item               Value     Threshold  Converged?
 Maximum Force            0.008768     0.000450     NO 
 RMS     Force            0.005438     0.000300     NO 
 Maximum Displacement     0.019627     0.001800     NO 
 RMS     Displacement     0.015826     0.001200     NO 
 Predicted change in Energy=-1.799703D-04
 GradGradGradGradGradGradGradGradGradGradGradGradGradGradGradGradGradGrad

                          Input orientation:                          
 ---------------------------------------------------------------------
 Center     Atomic      Atomic             Coordinates (Angstroms)
 Number     Number       Type             X           Y           Z
 ---------------------------------------------------------------------
      1          8           0        0.022874    0.000000    0.026240
      2          8           0       -0.022874    0.000000    1.427070
      3          1           0        0.958946    0.000000   -0.119725
      4          1           0       -0.958946    0.000000    1.573035
 ---------------------------------------------------------------------
                    Distance matrix (angstroms):
                    1          2          3          4
     1  O    0.000000
     2  O    1.401577   0.000000
     3  H    0.947384   1.832087   0.000000
     4  H    1.832087   0.947384   2.558074   0.000000
 Stoichiometry    H2O2
 Framework group  C2H[SGH(H2O2)]
 Deg. of freedom     3
 Full point group                 C2H     NOp   4
 Largest Abelian subgroup         C2H     NOp   4
 Largest concise Abelian subgroup C2      NOp   2
                         Standard orientation:                         
 ---------------------------------------------------------------------
 Center     Atomic      Atomic             Coordinates (Angstroms)
 Number     Number       Type             X           Y           Z
 ---------------------------------------------------------------------
      1          8           0        0.000000    0.700788    0.000000
      2          8           0        0.000000   -0.700788    0.000000
      3          1           0        0.930809    0.877229    0.000000
      4          1           0       -0.930809   -0.877229    0.000000
 ---------------------------------------------------------------------
 Rotational constants (GHZ):    321.1407115     28.9879301     26.5879548
 Standard basis: CC-pVDZ (5D, 7F)
 There are    15 symmetry adapted cartesian basis functions of AG  symmetry.
 There are     5 symmetry adapted cartesian basis functions of BG  symmetry.
 There are     5 symmetry adapted cartesian basis functions of AU  symmetry.
 There are    15 symmetry adapted cartesian basis functions of BU  symmetry.
 There are    14 symmetry adapted basis functions of AG  symmetry.
 There are     5 symmetry adapted basis functions of BG  symmetry.
 There are     5 symmetry adapted basis functions of AU  symmetry.
 There are    14 symmetry adapted basis functions of BU  symmetry.
    38 basis functions,    80 primitive gaussians,    40 cartesian basis functions
     9 alpha electrons        9 beta electrons
       nuclear repulsion energy        37.9290927356 Hartrees.
 NAtoms=    4 NActive=    4 NUniq=    2 SFac= 4.00D+00 NAtFMM=   60 NAOKFM=F Big=F
 Integral buffers will be    131072 words long.
 Raffenetti 1 integral format.
 Two-electron integral symmetry is turned on.
 One-electron integrals computed using PRISM.
 NBasis=    38 RedAO= T EigKep=  2.17D-02  NBF=    14     5     5    14
 NBsUse=    38 1.00D-06 EigRej= -1.00D+00 NBFU=    14     5     5    14
 Initial guess from the checkpoint file:  "/blue/chm6586/le.chen/hw3/q2/Gau-19851.chk"
 B after Tr=     0.000000    0.000000    0.000000
         Rot=    0.999999    0.000000    0.000000   -0.001223 Ang=  -0.14 deg.
 Initial guess orbital symmetries:
       Occupied  (AG) (BU) (AG) (BU) (BU) (AG) (AU) (AG) (BG)
       Virtual   (AG) (AG) (AG) (AG) (AG) (AG) (AG) (AG) (AG) (AG)
                 (BG) (BG) (BG) (BG) (AU) (AU) (AU) (AU) (BU) (BU)
                 (BU) (BU) (BU) (BU) (BU) (BU) (BU) (BU) (BU)
 Keep R1 ints in memory in symmetry-blocked form, NReq=1143397.
 Requested convergence on RMS density matrix=1.00D-08 within 128 cycles.
 Requested convergence on MAX density matrix=1.00D-06.
 Requested convergence on             energy=1.00D-06.
 No special actions if energy rises.
 SCF Done:  E(RHF) =  -150.785411404     A.U. after    8 cycles
            NFock=  8  Conv=0.46D-08     -V/T= 1.9997
 Calling FoFJK, ICntrl=      2127 FMM=F ISym2X=1 I1Cent= 0 IOpClX= 0 NMat=1 NMatS=1 NMatT=0.
 ***** Axes restored to original set *****
 -------------------------------------------------------------------
 Center     Atomic                   Forces (Hartrees/Bohr)
 Number     Number              X              Y              Z
 -------------------------------------------------------------------
      1        8           0.000185790    0.000000000   -0.000141812
      2        8          -0.000185790    0.000000000    0.000141812
      3        1          -0.000193532    0.000000000    0.000038505
      4        1           0.000193532    0.000000000   -0.000038505
 -------------------------------------------------------------------
 Cartesian Forces:  Max     0.000193532 RMS     0.000124877

 GradGradGradGradGradGradGradGradGradGradGradGradGradGradGradGradGradGrad
 Berny optimization.
 Using GEDIIS/GDIIS optimizer.
 FormGI is forming the generalized inverse of G from B-inverse, IUseBI=4.
 Internal  Forces:  Max     0.000197156 RMS     0.000121645
 Search for a local minimum.
 Step number   4 out of a maximum of  100
 All quantities printed in internal units (Hartrees-Bohrs-Radians)
 Mixed Optimization -- En-DIIS/RFO-DIIS
 Update second derivatives using D2CorX and points    1    2    3    4
 DE= -1.72D-04 DEPred=-1.80D-04 R= 9.53D-01
 TightC=F SS=  1.41D+00  RLast= 2.64D-02 DXNew= 8.0593D-01 7.9269D-02
 Trust test= 9.53D-01 RLast= 2.64D-02 DXMaxT set to 4.79D-01
 The second derivative matrix:
                          R1        R2        R3        A1        A2
           R1           0.40909
           R2           0.00800   0.54889
           R3           0.00800   0.02751   0.54889
           A1           0.08351   0.00692   0.00692   0.22917
           A2           0.08351   0.00692   0.00692   0.06917   0.22917
           D1           0.00000   0.00000   0.00000   0.00000   0.00000
                          D1
           D1           0.00590
 ITU=  1  0  1  0
 Use linear search instead of GDIIS.
     Eigenvalues ---    0.00590   0.16000   0.22319   0.48112   0.52138
     Eigenvalues ---    0.57952
 RFO step:  Lambda=-1.59814623D-07 EMin= 5.89615780D-03
 Quartic linear search produced a step of -0.00589.
 Iteration  1 RMS(Cart)=  0.00019888 RMS(Int)=  0.00000002
 Iteration  2 RMS(Cart)=  0.00000002 RMS(Int)=  0.00000000
 ClnCor:  largest displacement from symmetrization is 1.15D-14 for atom     4.
 Variable       Old X    -DE/DX   Delta X   Delta X   Delta X     New X
                                 (Linear)    (Quad)   (Total)
    R1        2.64860   0.00010  -0.00009   0.00041   0.00031   2.64891
    R2        1.79030  -0.00020  -0.00005  -0.00030  -0.00034   1.78995
    R3        1.79030  -0.00020  -0.00005  -0.00030  -0.00034   1.78995
    A1        1.75813  -0.00001  -0.00007  -0.00005  -0.00012   1.75801
    A2        1.75813  -0.00001  -0.00007  -0.00005  -0.00012   1.75801
    D1        3.14159   0.00000   0.00000   0.00000   0.00000   3.14159
         Item               Value     Threshold  Converged?
 Maximum Force            0.000197     0.000450     YES
 RMS     Force            0.000122     0.000300     YES
 Maximum Displacement     0.000244     0.001800     YES
 RMS     Displacement     0.000199     0.001200     YES
 Predicted change in Energy=-8.572343D-08
 Optimization completed.
    -- Stationary point found.
                           ----------------------------
                           !   Optimized Parameters   !
                           ! (Angstroms and Degrees)  !
 --------------------------                            --------------------------
 ! Name  Definition              Value          Derivative Info.                !
 --------------------------------------------------------------------------------
 ! R1    R(1,2)                  1.4016         -DE/DX =    0.0001              !
 ! R2    R(1,3)                  0.9474         -DE/DX =   -0.0002              !
 ! R3    R(2,4)                  0.9474         -DE/DX =   -0.0002              !
 ! A1    A(2,1,3)              100.7334         -DE/DX =    0.0                 !
 ! A2    A(1,2,4)              100.7334         -DE/DX =    0.0                 !
 ! D1    D(3,1,2,4)            180.0            -DE/DX =    0.0                 !
 --------------------------------------------------------------------------------
 GradGradGradGradGradGradGradGradGradGradGradGradGradGradGradGradGradGrad

                          Input orientation:                          
 ---------------------------------------------------------------------
 Center     Atomic      Atomic             Coordinates (Angstroms)
 Number     Number       Type             X           Y           Z
 ---------------------------------------------------------------------
      1          8           0        0.022874    0.000000    0.026240
      2          8           0       -0.022874    0.000000    1.427070
      3          1           0        0.958946    0.000000   -0.119725
      4          1           0       -0.958946    0.000000    1.573035
 ---------------------------------------------------------------------
                    Distance matrix (angstroms):
                    1          2          3          4
     1  O    0.000000
     2  O    1.401577   0.000000
     3  H    0.947384   1.832087   0.000000
     4  H    1.832087   0.947384   2.558074   0.000000
 Stoichiometry    H2O2
 Framework group  C2H[SGH(H2O2)]
 Deg. of freedom     3
 Full point group                 C2H     NOp   4
 Largest Abelian subgroup         C2H     NOp   4
 Largest concise Abelian subgroup C2      NOp   2
                         Standard orientation:                         
 ---------------------------------------------------------------------
 Center     Atomic      Atomic             Coordinates (Angstroms)
 Number     Number       Type             X           Y           Z
 ---------------------------------------------------------------------
      1          8           0        0.000000    0.700788    0.000000
      2          8           0        0.000000   -0.700788    0.000000
      3          1           0        0.930809    0.877229    0.000000
      4          1           0       -0.930809   -0.877229    0.000000
 ---------------------------------------------------------------------
 Rotational constants (GHZ):    321.1407115     28.9879301     26.5879548

 **********************************************************************

            Population analysis using the SCF density.

 **********************************************************************

 Orbital symmetries:
       Occupied  (AG) (BU) (AG) (BU) (BU) (AG) (AU) (AG) (BG)
       Virtual   (AG) (BU) (BU) (BU) (AG) (AG) (BU) (AU) (BU) (BG)
                 (AG) (BG) (AU) (BU) (AG) (AG) (BU) (AG) (BU) (AU)
                 (AG) (BU) (BG) (AU) (BG) (AG) (AG) (BU) (BU)
 The electronic state is 1-AG.
 Alpha  occ. eigenvalues --  -20.61476 -20.61443  -1.49325  -1.20462  -0.72954
 Alpha  occ. eigenvalues --   -0.68150  -0.63037  -0.53424  -0.43977
 Alpha virt. eigenvalues --    0.19595   0.20153   0.33947   0.82244   0.84593
 Alpha virt. eigenvalues --    1.08904   1.11470   1.15144   1.24840   1.25721
 Alpha virt. eigenvalues --    1.34777   1.53746   1.56150   1.58389   1.75588
 Alpha virt. eigenvalues --    1.92548   2.10070   2.43757   2.51001   2.59183
 Alpha virt. eigenvalues --    2.79972   2.98336   3.23358   3.33636   3.43310
 Alpha virt. eigenvalues --    3.63529   3.94399   3.95460   4.30914
          Condensed to atoms (all electrons):
               1          2          3          4
     1  O    7.754536   0.101514   0.365035  -0.029170
     2  O    0.101514   7.754536  -0.029170   0.365035
     3  H    0.365035  -0.029170   0.469536   0.002685
     4  H   -0.029170   0.365035   0.002685   0.469536
 Mulliken charges:
               1
     1  O   -0.191915
     2  O   -0.191915
     3  H    0.191915
     4  H    0.191915
 Sum of Mulliken charges =   0.00000
 Mulliken charges with hydrogens summed into heavy atoms:
               1
     1  O    0.000000
     2  O    0.000000
 Electronic spatial extent (au):  <R**2>=             63.0463
 Charge=              0.0000 electrons
 Dipole moment (field-independent basis, Debye):
    X=              0.0000    Y=              0.0000    Z=              0.0000  Tot=              0.0000
 Quadrupole moment (field-independent basis, Debye-Ang):
   XX=             -7.8196   YY=            -11.1817   ZZ=            -12.3406
   XY=              3.5916   XZ=              0.0000   YZ=              0.0000
 Traceless Quadrupole moment (field-independent basis, Debye-Ang):
   XX=              2.6277   YY=             -0.7344   ZZ=             -1.8933
   XY=              3.5916   XZ=              0.0000   YZ=              0.0000
 Octapole moment (field-independent basis, Debye-Ang**2):
  XXX=              0.0000  YYY=              0.0000  ZZZ=              0.0000  XYY=              0.0000
  XXY=              0.0000  XXZ=              0.0000  XZZ=              0.0000  YZZ=              0.0000
  YYZ=              0.0000  XYZ=              0.0000
 Hexadecapole moment (field-independent basis, Debye-Ang**3):
 XXXX=             -7.3734 YYYY=            -40.5274 ZZZZ=             -8.3877 XXXY=              1.5622
 XXXZ=              0.0000 YYYX=              1.4038 YYYZ=              0.0000 ZZZX=              0.0000
 ZZZY=              0.0000 XXYY=             -6.4289 XXZZ=             -3.3224 YYZZ=             -9.3038
 XXYZ=              0.0000 YYXZ=              0.0000 ZZXY=             -0.5736
 N-N= 3.792909273558D+01 E-N=-4.343801543535D+02  KE= 1.508360988364D+02
 Symmetry AG   KE= 7.277968455683D+01
 Symmetry BG   KE= 5.405057678400D+00
 Symmetry AU   KE= 4.357929821177D+00
 Symmetry BU   KE= 6.829342677995D+01
 B after Tr=    -0.027923    0.000000    0.000284
         Rot=    0.999948    0.000000   -0.010168    0.000000 Ang=  -1.17 deg.
 Final structure in terms of initial Z-matrix:
 O
 O,1,B1
 H,1,B2,2,A2
 H,2,B3,1,A3,3,D3,0
      Variables:
 B1=1.40157674
 B2=0.94738395
 A2=100.73342277
 B3=0.94738395
 A3=100.73342277
 D3=180.
 1\1\GINC-C0700A-S1\FOpt\RHF\CC-pVDZ\H2O2\LE.CHEN\06-Oct-2021\0\\#n hf/
 cc-pvdz Opt=(maxcyc=500)\\Title\\0,1\O,0.0376497776,0.,0.0260897762\O,
 -0.0080975064,0.,1.4269197281\H,0.9737216468,0.,-0.1198753096\H,-0.944
 1693755,0.,1.5728848138\\Version=AS64L-G09RevD.01\State=1-AG\HF=-150.7
 854114\RMSD=4.569e-09\RMSF=1.249e-04\Dipole=0.,0.,0.\Quadrupole=2.1252
 232,-1.407641,-0.7175822,0.,-2.5830581,0.\PG=C02H [SGH(H2O2)]\\@


 IF YOU GET CONFUSED, LOGIC OUT YOUR DILEMMA

           --  PICKER X-RAY CORP.    DIGITAL PRINTER MANUAL CA. 1964
 Job cpu time:       0 days  0 hours  0 minutes  2.6 seconds.
 File lengths (MBytes):  RWF=      5 Int=      0 D2E=      0 Chk=      1 Scr=      1
 Normal termination of Gaussian 09 at Wed Oct  6 23:59:36 2021.
