 Entering Gaussian System, Link 0=g09
 Initial command:
 /apps/gaussian/g09/amd-sse4a/l1.exe "/blue/chm6586/le.chen/hw3/q2/Gau-45114.inp" -scrdir="/blue/chm6586/le.chen/hw3/q2/"
 Entering Link 1 = /apps/gaussian/g09/amd-sse4a/l1.exe PID=     45115.
  
 Copyright (c) 1988,1990,1992,1993,1995,1998,2003,2009,2013,
            Gaussian, Inc.  All Rights Reserved.
  
 This is part of the Gaussian(R) 09 program.  It is based on
 the Gaussian(R) 03 system (copyright 2003, Gaussian, Inc.),
 the Gaussian(R) 98 system (copyright 1998, Gaussian, Inc.),
 the Gaussian(R) 94 system (copyright 1995, Gaussian, Inc.),
 the Gaussian 92(TM) system (copyright 1992, Gaussian, Inc.),
 the Gaussian 90(TM) system (copyright 1990, Gaussian, Inc.),
 the Gaussian 88(TM) system (copyright 1988, Gaussian, Inc.),
 the Gaussian 86(TM) system (copyright 1986, Carnegie Mellon
 University), and the Gaussian 82(TM) system (copyright 1983,
 Carnegie Mellon University). Gaussian is a federally registered
 trademark of Gaussian, Inc.
  
 This software contains proprietary and confidential information,
 including trade secrets, belonging to Gaussian, Inc.
  
 This software is provided under written license and may be
 used, copied, transmitted, or stored only in accord with that
 written license.
  
 The following legend is applicable only to US Government
 contracts under FAR:
  
                    RESTRICTED RIGHTS LEGEND
  
 Use, reproduction and disclosure by the US Government is
 subject to restrictions as set forth in subparagraphs (a)
 and (c) of the Commercial Computer Software - Restricted
 Rights clause in FAR 52.227-19.
  
 Gaussian, Inc.
 340 Quinnipiac St., Bldg. 40, Wallingford CT 06492
  
  
 ---------------------------------------------------------------
 Warning -- This program may not be used in any manner that
 competes with the business of Gaussian, Inc. or will provide
 assistance to any competitor of Gaussian, Inc.  The licensee
 of this program is prohibited from giving any competitor of
 Gaussian, Inc. access to this program.  By using this program,
 the user acknowledges that Gaussian, Inc. is engaged in the
 business of creating and licensing software in the field of
 computational chemistry and represents and warrants to the
 licensee that it is not a competitor of Gaussian, Inc. and that
 it will not use this program in any manner prohibited above.
 ---------------------------------------------------------------
  

 Cite this work as:
 Gaussian 09, Revision D.01,
 M. J. Frisch, G. W. Trucks, H. B. Schlegel, G. E. Scuseria, 
 M. A. Robb, J. R. Cheeseman, G. Scalmani, V. Barone, B. Mennucci, 
 G. A. Petersson, H. Nakatsuji, M. Caricato, X. Li, H. P. Hratchian, 
 A. F. Izmaylov, J. Bloino, G. Zheng, J. L. Sonnenberg, M. Hada, 
 M. Ehara, K. Toyota, R. Fukuda, J. Hasegawa, M. Ishida, T. Nakajima, 
 Y. Honda, O. Kitao, H. Nakai, T. Vreven, J. A. Montgomery, Jr., 
 J. E. Peralta, F. Ogliaro, M. Bearpark, J. J. Heyd, E. Brothers, 
 K. N. Kudin, V. N. Staroverov, T. Keith, R. Kobayashi, J. Normand, 
 K. Raghavachari, A. Rendell, J. C. Burant, S. S. Iyengar, J. Tomasi, 
 M. Cossi, N. Rega, J. M. Millam, M. Klene, J. E. Knox, J. B. Cross, 
 V. Bakken, C. Adamo, J. Jaramillo, R. Gomperts, R. E. Stratmann, 
 O. Yazyev, A. J. Austin, R. Cammi, C. Pomelli, J. W. Ochterski, 
 R. L. Martin, K. Morokuma, V. G. Zakrzewski, G. A. Voth, 
 P. Salvador, J. J. Dannenberg, S. Dapprich, A. D. Daniels, 
 O. Farkas, J. B. Foresman, J. V. Ortiz, J. Cioslowski, 
 and D. J. Fox, Gaussian, Inc., Wallingford CT, 2013.
 
 ******************************************
 Gaussian 09:  AS64L-G09RevD.01 24-Apr-2013
                 7-Oct-2021 
 ******************************************
 ------------------------------------------------------------
 # opt=(modredundant,maxcyc=500) hf/cc-pvdz geom=connectivity
 ------------------------------------------------------------
 1/6=500,18=120,19=15,38=1,57=2/1,3;
 2/9=110,12=2,17=6,18=5,40=1/2;
 3/5=16,11=9,16=1,25=1,30=1,71=1/1,2,3;
 4//1;
 5/5=2,38=5/2;
 6/7=2,8=2,9=2,10=2,28=1/1;
 7//1,2,3,16;
 1/6=500,18=20,19=15/3(2);
 2/9=110/2;
 99//99;
 2/9=110/2;
 3/5=16,11=9,16=1,25=1,30=1,71=1/1,2,3;
 4/5=5,16=3,69=1/1;
 5/5=2,38=5/2;
 7//1,2,3,16;
 1/6=500,18=20,19=15/3(-5);
 2/9=110/2;
 6/7=2,8=2,9=2,10=2,19=2,28=1/1;
 99/9=1/99;
 -----
 Title
 -----
 Symbolic Z-matrix:
 Charge =  0 Multiplicity = 1
 O                     0.        0.70079   0. 
 O                     0.       -0.70079   0. 
 H                     0.93081   0.87723   0. 
 H                    -0.93081  -0.87723   0. 
 
 Add virtual bond connecting atoms O2         and O1         Dist= 2.65D+00.
 The following ModRedundant input section has been read:
 D       3       1       2       4 S  72 5.0000                                
 

 GradGradGradGradGradGradGradGradGradGradGradGradGradGradGradGradGradGrad
 Berny optimization.
 Initialization pass.
                           ----------------------------
                           !    Initial Parameters    !
                           ! (Angstroms and Degrees)  !
 --------------------------                            --------------------------
 ! Name  Definition              Value          Derivative Info.                !
 --------------------------------------------------------------------------------
 ! R1    R(1,2)                  1.4016         estimate D2E/DX2                !
 ! R2    R(1,3)                  0.9474         estimate D2E/DX2                !
 ! R3    R(2,4)                  0.9474         estimate D2E/DX2                !
 ! A1    A(2,1,3)              100.7334         estimate D2E/DX2                !
 ! A2    A(1,2,4)              100.7334         estimate D2E/DX2                !
 ! D1    D(3,1,2,4)            180.0            Scan                            !
 --------------------------------------------------------------------------------
 Trust Radius=3.00D-01 FncErr=1.00D-07 GrdErr=1.00D-07
 Number of optimizations in scan=  73
 Number of steps in this run=    100 maximum allowed number of steps=    100.
 GradGradGradGradGradGradGradGradGradGradGradGradGradGradGradGradGradGrad

                          Input orientation:                          
 ---------------------------------------------------------------------
 Center     Atomic      Atomic             Coordinates (Angstroms)
 Number     Number       Type             X           Y           Z
 ---------------------------------------------------------------------
      1          8           0        0.000000    0.700788    0.000000
      2          8           0        0.000000   -0.700788    0.000000
      3          1           0        0.930809    0.877229    0.000000
      4          1           0       -0.930809   -0.877229    0.000000
 ---------------------------------------------------------------------
                    Distance matrix (angstroms):
                    1          2          3          4
     1  O    0.000000
     2  O    1.401576   0.000000
     3  H    0.947384   1.832087   0.000000
     4  H    1.832087   0.947384   2.558074   0.000000
 Stoichiometry    H2O2
 Framework group  C2H[SGH(H2O2)]
 Deg. of freedom     3
 Full point group                 C2H     NOp   4
 Largest Abelian subgroup         C2H     NOp   4
 Largest concise Abelian subgroup C2      NOp   2
                         Standard orientation:                         
 ---------------------------------------------------------------------
 Center     Atomic      Atomic             Coordinates (Angstroms)
 Number     Number       Type             X           Y           Z
 ---------------------------------------------------------------------
      1          8           0        0.000000    0.700788    0.000000
      2          8           0        0.000000   -0.700788    0.000000
      3          1           0        0.930809    0.877229    0.000000
      4          1           0       -0.930809   -0.877229    0.000000
 ---------------------------------------------------------------------
 Rotational constants (GHZ):    321.1406344     28.9879571     26.5879769
 Standard basis: CC-pVDZ (5D, 7F)
 There are    15 symmetry adapted cartesian basis functions of AG  symmetry.
 There are     5 symmetry adapted cartesian basis functions of BG  symmetry.
 There are     5 symmetry adapted cartesian basis functions of AU  symmetry.
 There are    15 symmetry adapted cartesian basis functions of BU  symmetry.
 There are    14 symmetry adapted basis functions of AG  symmetry.
 There are     5 symmetry adapted basis functions of BG  symmetry.
 There are     5 symmetry adapted basis functions of AU  symmetry.
 There are    14 symmetry adapted basis functions of BU  symmetry.
    38 basis functions,    80 primitive gaussians,    40 cartesian basis functions
     9 alpha electrons        9 beta electrons
       nuclear repulsion energy        37.9291036624 Hartrees.
 NAtoms=    4 NActive=    4 NUniq=    2 SFac= 4.00D+00 NAtFMM=   60 NAOKFM=F Big=F
 Integral buffers will be    131072 words long.
 Raffenetti 1 integral format.
 Two-electron integral symmetry is turned on.
 One-electron integrals computed using PRISM.
 NBasis=    38 RedAO= T EigKep=  2.17D-02  NBF=    14     5     5    14
 NBsUse=    38 1.00D-06 EigRej= -1.00D+00 NBFU=    14     5     5    14
 ExpMin= 1.22D-01 ExpMax= 1.17D+04 ExpMxC= 4.01D+02 IAcc=1 IRadAn=         1 AccDes= 0.00D+00
 Harris functional with IExCor=  205 and IRadAn=       1 diagonalized for initial guess.
 HarFok:  IExCor=  205 AccDes= 0.00D+00 IRadAn=         1 IDoV= 1 UseB2=F ITyADJ=14
 ICtDFT=  3500011 ScaDFX=  1.000000  1.000000  1.000000  1.000000
 FoFCou: FMM=F IPFlag=           0 FMFlag=      100000 FMFlg1=           0
         NFxFlg=           0 DoJE=T BraDBF=F KetDBF=T FulRan=T
         wScrn=  0.000000 ICntrl=     500 IOpCl=  0 I1Cent=   200000004 NGrid=           0
         NMat0=    1 NMatS0=      1 NMatT0=    0 NMatD0=    1 NMtDS0=    0 NMtDT0=    0
 Petite list used in FoFCou.
 Initial guess orbital symmetries:
       Occupied  (BU) (AG) (AG) (BU) (AG) (BU) (AU) (AG) (BG)
       Virtual   (BU) (AG) (BU) (AG) (BU) (BU) (AU) (AG) (BG) (BU)
                 (AG) (BG) (BU) (AU) (AG) (AG) (BU) (AG) (BU) (AU)
                 (AG) (BU) (BG) (AU) (BG) (AG) (AG) (BU) (BU)
 The electronic state of the initial guess is 1-AG.
 Keep R1 ints in memory in symmetry-blocked form, NReq=1143397.
 Requested convergence on RMS density matrix=1.00D-08 within 128 cycles.
 Requested convergence on MAX density matrix=1.00D-06.
 Requested convergence on             energy=1.00D-06.
 No special actions if energy rises.
 SCF Done:  E(RHF) =  -150.785411403     A.U. after   10 cycles
            NFock= 10  Conv=0.20D-08     -V/T= 1.9997

 **********************************************************************

            Population analysis using the SCF density.

 **********************************************************************

 Orbital symmetries:
       Occupied  (AG) (BU) (AG) (BU) (BU) (AG) (AU) (AG) (BG)
       Virtual   (AG) (BU) (BU) (BU) (AG) (AG) (BU) (AU) (BU) (BG)
                 (AG) (BG) (AU) (BU) (AG) (AG) (BU) (AG) (BU) (AU)
                 (AG) (BU) (BG) (AU) (BG) (AG) (AG) (BU) (BU)
 The electronic state is 1-AG.
 Alpha  occ. eigenvalues --  -20.61476 -20.61443  -1.49325  -1.20462  -0.72954
 Alpha  occ. eigenvalues --   -0.68150  -0.63037  -0.53424  -0.43977
 Alpha virt. eigenvalues --    0.19595   0.20153   0.33947   0.82244   0.84593
 Alpha virt. eigenvalues --    1.08904   1.11470   1.15144   1.24840   1.25721
 Alpha virt. eigenvalues --    1.34777   1.53746   1.56150   1.58389   1.75588
 Alpha virt. eigenvalues --    1.92548   2.10070   2.43757   2.51001   2.59183
 Alpha virt. eigenvalues --    2.79972   2.98336   3.23358   3.33636   3.43310
 Alpha virt. eigenvalues --    3.63529   3.94399   3.95460   4.30914
          Condensed to atoms (all electrons):
               1          2          3          4
     1  O    7.754537   0.101514   0.365035  -0.029170
     2  O    0.101514   7.754537  -0.029170   0.365035
     3  H    0.365035  -0.029170   0.469536   0.002685
     4  H   -0.029170   0.365035   0.002685   0.469536
 Mulliken charges:
               1
     1  O   -0.191915
     2  O   -0.191915
     3  H    0.191915
     4  H    0.191915
 Sum of Mulliken charges =   0.00000
 Mulliken charges with hydrogens summed into heavy atoms:
               1
     1  O    0.000000
     2  O    0.000000
 Electronic spatial extent (au):  <R**2>=             63.0462
 Charge=              0.0000 electrons
 Dipole moment (field-independent basis, Debye):
    X=              0.0000    Y=              0.0000    Z=              0.0000  Tot=              0.0000
 Quadrupole moment (field-independent basis, Debye-Ang):
   XX=             -7.8196   YY=            -11.1817   ZZ=            -12.3406
   XY=              3.5916   XZ=              0.0000   YZ=              0.0000
 Traceless Quadrupole moment (field-independent basis, Debye-Ang):
   XX=              2.6277   YY=             -0.7344   ZZ=             -1.8933
   XY=              3.5916   XZ=              0.0000   YZ=              0.0000
 Octapole moment (field-independent basis, Debye-Ang**2):
  XXX=              0.0000  YYY=              0.0000  ZZZ=              0.0000  XYY=              0.0000
  XXY=              0.0000  XXZ=              0.0000  XZZ=              0.0000  YZZ=              0.0000
  YYZ=              0.0000  XYZ=              0.0000
 Hexadecapole moment (field-independent basis, Debye-Ang**3):
 XXXX=             -7.3734 YYYY=            -40.5273 ZZZZ=             -8.3877 XXXY=              1.5622
 XXXZ=              0.0000 YYYX=              1.4038 YYYZ=              0.0000 ZZZX=              0.0000
 ZZZY=              0.0000 XXYY=             -6.4289 XXZZ=             -3.3224 YYZZ=             -9.3038
 XXYZ=              0.0000 YYXZ=              0.0000 ZZXY=             -0.5736
 N-N= 3.792910366242D+01 E-N=-4.343801772834D+02  KE= 1.508360995469D+02
 Symmetry AG   KE= 7.277968570175D+01
 Symmetry BG   KE= 5.405058160946D+00
 Symmetry AU   KE= 4.357929646900D+00
 Symmetry BU   KE= 6.829342603730D+01
 Calling FoFJK, ICntrl=      2127 FMM=F ISym2X=1 I1Cent= 0 IOpClX= 0 NMat=1 NMatS=1 NMatT=0.
 ***** Axes restored to original set *****
 -------------------------------------------------------------------
 Center     Atomic                   Forces (Hartrees/Bohr)
 Number     Number              X              Y              Z
 -------------------------------------------------------------------
      1        8           0.000181326    0.000148419    0.000000000
      2        8          -0.000181326   -0.000148419    0.000000000
      3        1          -0.000192470   -0.000044871    0.000000000
      4        1           0.000192470    0.000044871    0.000000000
 -------------------------------------------------------------------
 Cartesian Forces:  Max     0.000192470 RMS     0.000125144

 GradGradGradGradGradGradGradGradGradGradGradGradGradGradGradGradGradGrad
 Berny optimization.
 FormGI is forming the generalized inverse of G from B-inverse, IUseBI=4.
 Internal  Forces:  Max     0.000197459 RMS     0.000121886
 Search for a local minimum.
 Step number   1 out of a maximum of  100 on scan point     1 out of    73
 All quantities printed in internal units (Hartrees-Bohrs-Radians)
 Mixed Optimization -- En-DIIS/RFO-DIIS
 Second derivative matrix not updated -- first step.
 The second derivative matrix:
                          R1        R2        R3        A1        A2
           R1           0.45360
           R2           0.00000   0.58278
           R3           0.00000   0.00000   0.58278
           A1           0.00000   0.00000   0.00000   0.16000
           A2           0.00000   0.00000   0.00000   0.00000   0.16000
           D1           0.00000   0.00000   0.00000   0.00000   0.00000
                          D1
           D1           0.01274
 ITU=  0
     Eigenvalues ---    0.16000   0.16000   0.45360   0.58278   0.58278
     Eigenvalues --- 1000.00000
 RFO step:  Lambda=-1.60165583D-07 EMin= 1.60000000D-01
 Linear search not attempted -- first point.
 Iteration  1 RMS(Cart)=  0.00018655 RMS(Int)=  0.00000002
 Iteration  2 RMS(Cart)=  0.00000002 RMS(Int)=  0.00000000
 Iteration  1 RMS(Cart)=  0.00000000 RMS(Int)=  0.00000000
 ClnCor:  largest displacement from symmetrization is 5.43D-14 for atom     4.
 Variable       Old X    -DE/DX   Delta X   Delta X   Delta X     New X
                                 (Linear)    (Quad)   (Total)
    R1        2.64859   0.00010   0.00000   0.00023   0.00023   2.64882
    R2        1.79030  -0.00020   0.00000  -0.00034  -0.00034   1.78996
    R3        1.79030  -0.00020   0.00000  -0.00034  -0.00034   1.78996
    A1        1.75813  -0.00001   0.00000  -0.00009  -0.00009   1.75804
    A2        1.75813  -0.00001   0.00000  -0.00009  -0.00009   1.75804
    D1        3.14159   0.00000   0.00000   0.00000   0.00000   3.14159
         Item               Value     Threshold  Converged?
 Maximum Force            0.000197     0.000450     YES
 RMS     Force            0.000134     0.000300     YES
 Maximum Displacement     0.000236     0.001800     YES
 RMS     Displacement     0.000187     0.001200     YES
 Predicted change in Energy=-8.008279D-08
 Optimization completed.
    -- Stationary point found.
                           ----------------------------
                           !   Optimized Parameters   !
                           ! (Angstroms and Degrees)  !
 --------------------------                            --------------------------
 ! Name  Definition              Value          Derivative Info.                !
 --------------------------------------------------------------------------------
 ! R1    R(1,2)                  1.4016         -DE/DX =    0.0001              !
 ! R2    R(1,3)                  0.9474         -DE/DX =   -0.0002              !
 ! R3    R(2,4)                  0.9474         -DE/DX =   -0.0002              !
 ! A1    A(2,1,3)              100.7334         -DE/DX =    0.0                 !
 ! A2    A(1,2,4)              100.7334         -DE/DX =    0.0                 !
 ! D1    D(3,1,2,4)            180.0            -DE/DX =    0.0                 !
 --------------------------------------------------------------------------------
 Iteration  1 RMS(Cart)=  0.03132492 RMS(Int)=  0.00095470
 Iteration  2 RMS(Cart)=  0.00077201 RMS(Int)=  0.00000013
 Iteration  3 RMS(Cart)=  0.00000009 RMS(Int)=  0.00000000
 Iteration  1 RMS(Cart)=  0.00000000 RMS(Int)=  0.00000000
 GradGradGradGradGradGradGradGradGradGradGradGradGradGradGradGradGradGrad

                          Input orientation:                          
 ---------------------------------------------------------------------
 Center     Atomic      Atomic             Coordinates (Angstroms)
 Number     Number       Type             X           Y           Z
 ---------------------------------------------------------------------
      1          8           0        0.000284    0.700848    0.020297
      2          8           0       -0.000284   -0.700848    0.020297
      3          1           0        0.930119    0.876793   -0.020297
      4          1           0       -0.930119   -0.876793   -0.020297
 ---------------------------------------------------------------------
                    Distance matrix (angstroms):
                    1          2          3          4
     1  O    0.000000
     2  O    1.401697   0.000000
     3  H    0.947205   1.832007   0.000000
     4  H    1.832007   0.947205   2.556472   0.000000
 Stoichiometry    H2O2
 Framework group  C2[X(H2O2)]
 Deg. of freedom     4
 Full point group                 C2      NOp   2
 Omega: Change in point group or standard orientation.

 Old FWG=C02H [SGH(H2O2)]
 New FWG=C02  [X(H2O2)]
 Largest Abelian subgroup         C2      NOp   2
 Largest concise Abelian subgroup C2      NOp   2
                         Standard orientation:                         
 ---------------------------------------------------------------------
 Center     Atomic      Atomic             Coordinates (Angstroms)
 Number     Number       Type             X           Y           Z
 ---------------------------------------------------------------------
      1          8           0        0.000000    0.700848    0.004510
      2          8           0        0.000000   -0.700848    0.004510
      3          1           0        0.929763    0.877170   -0.036084
      4          1           0       -0.929763   -0.877170   -0.036084
 ---------------------------------------------------------------------
 Rotational constants (GHZ):    321.2060968     28.9793986     26.5899652
 Standard basis: CC-pVDZ (5D, 7F)
 There are    20 symmetry adapted cartesian basis functions of A   symmetry.
 There are    20 symmetry adapted cartesian basis functions of B   symmetry.
 There are    19 symmetry adapted basis functions of A   symmetry.
 There are    19 symmetry adapted basis functions of B   symmetry.
    38 basis functions,    80 primitive gaussians,    40 cartesian basis functions
     9 alpha electrons        9 beta electrons
       nuclear repulsion energy        37.9290440584 Hartrees.
 NAtoms=    4 NActive=    4 NUniq=    2 SFac= 4.00D+00 NAtFMM=   60 NAOKFM=F Big=F
 Integral buffers will be    131072 words long.
 Raffenetti 1 integral format.
 Two-electron integral symmetry is turned on.
 One-electron integrals computed using PRISM.
 NBasis=    38 RedAO= T EigKep=  1.54D-02  NBF=    19    19
 NBsUse=    38 1.00D-06 EigRej= -1.00D+00 NBFU=    19    19
 Initial guess from the checkpoint file:  "/blue/chm6586/le.chen/hw3/q2/Gau-45115.chk"
 B after Tr=     0.000000    0.000000    0.000000
         Rot=    1.000000    0.000000    0.000000   -0.000078 Ang=  -0.01 deg.
 Initial guess orbital symmetries:
       Occupied  (A) (B) (A) (B) (B) (A) (A) (A) (B)
       Virtual   (A) (A) (A) (A) (A) (A) (A) (A) (A) (A) (A) (A)
                 (A) (A) (B) (B) (B) (B) (B) (B) (B) (B) (B) (B)
                 (B) (B) (B) (B) (B)
 ExpMin= 1.22D-01 ExpMax= 1.17D+04 ExpMxC= 4.01D+02 IAcc=1 IRadAn=         1 AccDes= 0.00D+00
 Harris functional with IExCor=  205 and IRadAn=       1 diagonalized for initial guess.
 HarFok:  IExCor=  205 AccDes= 0.00D+00 IRadAn=         1 IDoV= 1 UseB2=F ITyADJ=14
 ICtDFT=  3500011 ScaDFX=  1.000000  1.000000  1.000000  1.000000
 FoFCou: FMM=F IPFlag=           0 FMFlag=      100000 FMFlg1=           0
         NFxFlg=           0 DoJE=T BraDBF=F KetDBF=T FulRan=T
         wScrn=  0.000000 ICntrl=     500 IOpCl=  0 I1Cent=   200000004 NGrid=           0
         NMat0=    1 NMatS0=      1 NMatT0=    0 NMatD0=    1 NMtDS0=    0 NMtDT0=    0
 Petite list used in FoFCou.
 Keep R1 ints in memory in symmetry-blocked form, NReq=1142897.
 Requested convergence on RMS density matrix=1.00D-08 within 128 cycles.
 Requested convergence on MAX density matrix=1.00D-06.
 Requested convergence on             energy=1.00D-06.
 No special actions if energy rises.
 SCF Done:  E(RHF) =  -150.785427823     A.U. after   10 cycles
            NFock= 10  Conv=0.22D-08     -V/T= 1.9997
 Calling FoFJK, ICntrl=      2127 FMM=F ISym2X=1 I1Cent= 0 IOpClX= 0 NMat=1 NMatS=1 NMatT=0.
 ***** Axes restored to original set *****
 -------------------------------------------------------------------
 Center     Atomic                   Forces (Hartrees/Bohr)
 Number     Number              X              Y              Z
 -------------------------------------------------------------------
      1        8           0.000034518   -0.000043148    0.000212599
      2        8          -0.000034518    0.000043148    0.000212599
      3        1           0.000005388    0.000031103   -0.000212599
      4        1          -0.000005388   -0.000031103   -0.000212599
 -------------------------------------------------------------------
 Cartesian Forces:  Max     0.000212599 RMS     0.000125463

 GradGradGradGradGradGradGradGradGradGradGradGradGradGradGradGradGradGrad
 Berny optimization.
 FormGI is forming the generalized inverse of G from B-inverse, IUseBI=4.
 Internal  Forces:  Max     0.000373123 RMS     0.000155534
 Search for a local minimum.
 Step number   1 out of a maximum of  100 on scan point     2 out of    73
 All quantities printed in internal units (Hartrees-Bohrs-Radians)
 Mixed Optimization -- RFO/linear search
 Second derivative matrix not updated -- first step.
 The second derivative matrix:
                          R1        R2        R3        A1        A2
           R1           0.45360
           R2           0.00000   0.58278
           R3           0.00000   0.00000   0.58278
           A1           0.00000   0.00000   0.00000   0.16000
           A2           0.00000   0.00000   0.00000   0.00000   0.16000
           D1           0.00000   0.00000   0.00000   0.00000   0.00000
                          D1
           D1           0.01274
 ITU=  0
     Eigenvalues ---    0.16000   0.16000   0.45360   0.58278   0.58278
     Eigenvalues --- 1000.00000
 RFO step:  Lambda=-3.27454025D-08 EMin= 1.60000000D-01
 Linear search not attempted -- first point.
 Iteration  1 RMS(Cart)=  0.00022201 RMS(Int)=  0.00000002
 Iteration  2 RMS(Cart)=  0.00000002 RMS(Int)=  0.00000000
 Iteration  1 RMS(Cart)=  0.00000000 RMS(Int)=  0.00000000
 ClnCor:  largest displacement from symmetrization is 3.42D-14 for atom     4.
 Variable       Old X    -DE/DX   Delta X   Delta X   Delta X     New X
                                 (Linear)    (Quad)   (Total)
    R1        2.64882  -0.00001   0.00000  -0.00003  -0.00003   2.64880
    R2        1.78996   0.00002   0.00000   0.00003   0.00003   1.78999
    R3        1.78996   0.00002   0.00000   0.00003   0.00003   1.78999
    A1        1.75804   0.00005   0.00000   0.00031   0.00031   1.75835
    A2        1.75804   0.00005   0.00000   0.00031   0.00031   1.75835
    D1       -3.05433   0.00037   0.00000   0.00000   0.00000  -3.05433
         Item               Value     Threshold  Converged?
 Maximum Force            0.000050     0.000450     YES
 RMS     Force            0.000034     0.000300     YES
 Maximum Displacement     0.000294     0.001800     YES
 RMS     Displacement     0.000222     0.001200     YES
 Predicted change in Energy=-1.637270D-08
 Optimization completed.
    -- Stationary point found.
                           ----------------------------
                           !   Optimized Parameters   !
                           ! (Angstroms and Degrees)  !
 --------------------------                            --------------------------
 ! Name  Definition              Value          Derivative Info.                !
 --------------------------------------------------------------------------------
 ! R1    R(1,2)                  1.4017         -DE/DX =    0.0                 !
 ! R2    R(1,3)                  0.9472         -DE/DX =    0.0                 !
 ! R3    R(2,4)                  0.9472         -DE/DX =    0.0                 !
 ! A1    A(2,1,3)              100.7282         -DE/DX =    0.0                 !
 ! A2    A(1,2,4)              100.7282         -DE/DX =    0.0                 !
 ! D1    D(3,1,2,4)           -175.0            -DE/DX =    0.0004              !
 --------------------------------------------------------------------------------
 Iteration  1 RMS(Cart)=  0.03133190 RMS(Int)=  0.00095472
 Iteration  2 RMS(Cart)=  0.00077080 RMS(Int)=  0.00000013
 Iteration  3 RMS(Cart)=  0.00000009 RMS(Int)=  0.00000000
 Iteration  1 RMS(Cart)=  0.00000000 RMS(Int)=  0.00000000
 GradGradGradGradGradGradGradGradGradGradGradGradGradGradGradGradGradGrad

                          Input orientation:                          
 ---------------------------------------------------------------------
 Center     Atomic      Atomic             Coordinates (Angstroms)
 Number     Number       Type             X           Y           Z
 ---------------------------------------------------------------------
      1          8           0        0.001152    0.700840    0.040554
      2          8           0       -0.001152   -0.700840    0.040554
      3          1           0        0.928512    0.875931   -0.040554
      4          1           0       -0.928512   -0.875931   -0.040554
 ---------------------------------------------------------------------
                    Distance matrix (angstroms):
                    1          2          3          4
     1  O    0.000000
     2  O    1.401683   0.000000
     3  H    0.947223   1.832229   0.000000
     4  H    1.832229   0.947223   2.552951   0.000000
 Stoichiometry    H2O2
 Framework group  C2[X(H2O2)]
 Deg. of freedom     4
 Full point group                 C2      NOp   2
 Largest Abelian subgroup         C2      NOp   2
 Largest concise Abelian subgroup C2      NOp   2
                         Standard orientation:                         
 ---------------------------------------------------------------------
 Center     Atomic      Atomic             Coordinates (Angstroms)
 Number     Number       Type             X           Y           Z
 ---------------------------------------------------------------------
      1          8           0        0.000000    0.700841    0.009012
      2          8           0        0.000000   -0.700841    0.009012
      3          1           0        0.927071    0.877456   -0.072096
      4          1           0       -0.927071   -0.877456   -0.072096
 ---------------------------------------------------------------------
 Rotational constants (GHZ):    321.1523875     28.9643577     26.6030937
 Standard basis: CC-pVDZ (5D, 7F)
 There are    20 symmetry adapted cartesian basis functions of A   symmetry.
 There are    20 symmetry adapted cartesian basis functions of B   symmetry.
 There are    19 symmetry adapted basis functions of A   symmetry.
 There are    19 symmetry adapted basis functions of B   symmetry.
    38 basis functions,    80 primitive gaussians,    40 cartesian basis functions
     9 alpha electrons        9 beta electrons
       nuclear repulsion energy        37.9288392909 Hartrees.
 NAtoms=    4 NActive=    4 NUniq=    2 SFac= 4.00D+00 NAtFMM=   60 NAOKFM=F Big=F
 Integral buffers will be    131072 words long.
 Raffenetti 1 integral format.
 Two-electron integral symmetry is turned on.
 One-electron integrals computed using PRISM.
 NBasis=    38 RedAO= T EigKep=  1.54D-02  NBF=    19    19
 NBsUse=    38 1.00D-06 EigRej= -1.00D+00 NBFU=    19    19
 Initial guess from the checkpoint file:  "/blue/chm6586/le.chen/hw3/q2/Gau-45115.chk"
 B after Tr=     0.000000    0.000000    0.000000
         Rot=    1.000000    0.000000    0.000000   -0.000236 Ang=  -0.03 deg.
 Initial guess orbital symmetries:
       Occupied  (A) (B) (A) (B) (B) (A) (A) (A) (B)
       Virtual   (A) (A) (A) (A) (A) (A) (A) (A) (A) (A) (A) (A)
                 (A) (A) (B) (B) (B) (B) (B) (B) (B) (B) (B) (B)
                 (B) (B) (B) (B) (B)
 ExpMin= 1.22D-01 ExpMax= 1.17D+04 ExpMxC= 4.01D+02 IAcc=1 IRadAn=         1 AccDes= 0.00D+00
 Harris functional with IExCor=  205 and IRadAn=       1 diagonalized for initial guess.
 HarFok:  IExCor=  205 AccDes= 0.00D+00 IRadAn=         1 IDoV= 1 UseB2=F ITyADJ=14
 ICtDFT=  3500011 ScaDFX=  1.000000  1.000000  1.000000  1.000000
 FoFCou: FMM=F IPFlag=           0 FMFlag=      100000 FMFlg1=           0
         NFxFlg=           0 DoJE=T BraDBF=F KetDBF=T FulRan=T
         wScrn=  0.000000 ICntrl=     500 IOpCl=  0 I1Cent=   200000004 NGrid=           0
         NMat0=    1 NMatS0=      1 NMatT0=    0 NMatD0=    1 NMtDS0=    0 NMtDT0=    0
 Petite list used in FoFCou.
 Keep R1 ints in memory in symmetry-blocked form, NReq=1142897.
 Requested convergence on RMS density matrix=1.00D-08 within 128 cycles.
 Requested convergence on MAX density matrix=1.00D-06.
 Requested convergence on             energy=1.00D-06.
 No special actions if energy rises.
 SCF Done:  E(RHF) =  -150.785476213     A.U. after   10 cycles
            NFock= 10  Conv=0.23D-08     -V/T= 1.9997
 Calling FoFJK, ICntrl=      2127 FMM=F ISym2X=1 I1Cent= 0 IOpClX= 0 NMat=1 NMatS=1 NMatT=0.
 ***** Axes restored to original set *****
 -------------------------------------------------------------------
 Center     Atomic                   Forces (Hartrees/Bohr)
 Number     Number              X              Y              Z
 -------------------------------------------------------------------
      1        8           0.000120286   -0.000189421    0.000414639
      2        8          -0.000120286    0.000189421    0.000414639
      3        1          -0.000028677    0.000063976   -0.000414639
      4        1           0.000028677   -0.000063976   -0.000414639
 -------------------------------------------------------------------
 Cartesian Forces:  Max     0.000414639 RMS     0.000257913

 GradGradGradGradGradGradGradGradGradGradGradGradGradGradGradGradGradGrad
 Berny optimization.
 FormGI is forming the generalized inverse of G from B-inverse, IUseBI=4.
 Internal  Forces:  Max     0.000730821 RMS     0.000309491
 Search for a local minimum.
 Step number   1 out of a maximum of  100 on scan point     3 out of    73
 All quantities printed in internal units (Hartrees-Bohrs-Radians)
 Mixed Optimization -- RFO/linear search
 Second derivative matrix not updated -- first step.
 The second derivative matrix:
                          R1        R2        R3        A1        A2
           R1           0.45360
           R2           0.00000   0.58278
           R3           0.00000   0.00000   0.58278
           A1           0.00000   0.00000   0.00000   0.16000
           A2           0.00000   0.00000   0.00000   0.00000   0.16000
           D1           0.00000   0.00000   0.00000   0.00000   0.00000
                          D1
           D1           0.01274
 ITU=  0
     Eigenvalues ---    0.16000   0.16000   0.45360   0.58278   0.58278
     Eigenvalues --- 1000.00000
 RFO step:  Lambda=-1.86944502D-07 EMin= 1.60000000D-01
 Linear search not attempted -- first point.
 Iteration  1 RMS(Cart)=  0.00043617 RMS(Int)=  0.00000009
 Iteration  2 RMS(Cart)=  0.00000011 RMS(Int)=  0.00000000
 Iteration  1 RMS(Cart)=  0.00000000 RMS(Int)=  0.00000000
 ClnCor:  largest displacement from symmetrization is 1.33D-14 for atom     2.
 Variable       Old X    -DE/DX   Delta X   Delta X   Delta X     New X
                                 (Linear)    (Quad)   (Total)
    R1        2.64880  -0.00013   0.00000  -0.00028  -0.00028   2.64852
    R2        1.78999   0.00002   0.00000   0.00003   0.00003   1.79003
    R3        1.78999   0.00002   0.00000   0.00003   0.00003   1.79003
    A1        1.75835   0.00011   0.00000   0.00069   0.00069   1.75904
    A2        1.75835   0.00011   0.00000   0.00069   0.00069   1.75904
    D1       -2.96706   0.00073   0.00000   0.00000   0.00000  -2.96706
         Item               Value     Threshold  Converged?
 Maximum Force            0.000125     0.000450     YES
 RMS     Force            0.000090     0.000300     YES
 Maximum Displacement     0.000564     0.001800     YES
 RMS     Displacement     0.000436     0.001200     YES
 Predicted change in Energy=-9.347225D-08
 Optimization completed.
    -- Stationary point found.
                           ----------------------------
                           !   Optimized Parameters   !
                           ! (Angstroms and Degrees)  !
 --------------------------                            --------------------------
 ! Name  Definition              Value          Derivative Info.                !
 --------------------------------------------------------------------------------
 ! R1    R(1,2)                  1.4017         -DE/DX =   -0.0001              !
 ! R2    R(1,3)                  0.9472         -DE/DX =    0.0                 !
 ! R3    R(2,4)                  0.9472         -DE/DX =    0.0                 !
 ! A1    A(2,1,3)              100.746          -DE/DX =    0.0001              !
 ! A2    A(1,2,4)              100.746          -DE/DX =    0.0001              !
 ! D1    D(3,1,2,4)           -170.0            -DE/DX =    0.0007              !
 --------------------------------------------------------------------------------
 Iteration  1 RMS(Cart)=  0.03135273 RMS(Int)=  0.00095482
 Iteration  2 RMS(Cart)=  0.00076810 RMS(Int)=  0.00000012
 Iteration  3 RMS(Cart)=  0.00000009 RMS(Int)=  0.00000000
 Iteration  1 RMS(Cart)=  0.00000000 RMS(Int)=  0.00000000
 GradGradGradGradGradGradGradGradGradGradGradGradGradGradGradGradGradGrad

                          Input orientation:                          
 ---------------------------------------------------------------------
 Center     Atomic      Atomic             Coordinates (Angstroms)
 Number     Number       Type             X           Y           Z
 ---------------------------------------------------------------------
      1          8           0        0.002641    0.700763    0.060728
      2          8           0       -0.002641   -0.700763    0.060728
      3          1           0        0.925849    0.874543   -0.060728
      4          1           0       -0.925849   -0.874543   -0.060728
 ---------------------------------------------------------------------
                    Distance matrix (angstroms):
                    1          2          3          4
     1  O    0.000000
     2  O    1.401537   0.000000
     3  H    0.947241   1.832604   0.000000
     4  H    1.832604   0.947241   2.547173   0.000000
 Stoichiometry    H2O2
 Framework group  C2[X(H2O2)]
 Deg. of freedom     4
 Full point group                 C2      NOp   2
 Largest Abelian subgroup         C2      NOp   2
 Largest concise Abelian subgroup C2      NOp   2
                         Standard orientation:                         
 ---------------------------------------------------------------------
 Center     Atomic      Atomic             Coordinates (Angstroms)
 Number     Number       Type             X           Y           Z
 ---------------------------------------------------------------------
      1          8           0        0.000000    0.700768    0.013495
      2          8           0        0.000000   -0.700768    0.013495
      3          1           0        0.922547    0.878026   -0.107961
      4          1           0       -0.922547   -0.878026   -0.107961
 ---------------------------------------------------------------------
 Rotational constants (GHZ):    321.1055034     28.9433939     26.6285027
 Standard basis: CC-pVDZ (5D, 7F)
 There are    20 symmetry adapted cartesian basis functions of A   symmetry.
 There are    20 symmetry adapted cartesian basis functions of B   symmetry.
 There are    19 symmetry adapted basis functions of A   symmetry.
 There are    19 symmetry adapted basis functions of B   symmetry.
    38 basis functions,    80 primitive gaussians,    40 cartesian basis functions
     9 alpha electrons        9 beta electrons
       nuclear repulsion energy        37.9307196692 Hartrees.
 NAtoms=    4 NActive=    4 NUniq=    2 SFac= 4.00D+00 NAtFMM=   60 NAOKFM=F Big=F
 Integral buffers will be    131072 words long.
 Raffenetti 1 integral format.
 Two-electron integral symmetry is turned on.
 One-electron integrals computed using PRISM.
 NBasis=    38 RedAO= T EigKep=  1.54D-02  NBF=    19    19
 NBsUse=    38 1.00D-06 EigRej= -1.00D+00 NBFU=    19    19
 Initial guess from the checkpoint file:  "/blue/chm6586/le.chen/hw3/q2/Gau-45115.chk"
 B after Tr=     0.000000    0.000000    0.000000
         Rot=    1.000000    0.000000    0.000000   -0.000405 Ang=  -0.05 deg.
 Initial guess orbital symmetries:
       Occupied  (A) (B) (A) (B) (B) (A) (A) (A) (B)
       Virtual   (A) (A) (A) (A) (A) (A) (A) (A) (A) (A) (A) (A)
                 (A) (A) (B) (B) (B) (B) (B) (B) (B) (B) (B) (B)
                 (B) (B) (B) (B) (B)
 ExpMin= 1.22D-01 ExpMax= 1.17D+04 ExpMxC= 4.01D+02 IAcc=1 IRadAn=         1 AccDes= 0.00D+00
 Harris functional with IExCor=  205 and IRadAn=       1 diagonalized for initial guess.
 HarFok:  IExCor=  205 AccDes= 0.00D+00 IRadAn=         1 IDoV= 1 UseB2=F ITyADJ=14
 ICtDFT=  3500011 ScaDFX=  1.000000  1.000000  1.000000  1.000000
 FoFCou: FMM=F IPFlag=           0 FMFlag=      100000 FMFlg1=           0
         NFxFlg=           0 DoJE=T BraDBF=F KetDBF=T FulRan=T
         wScrn=  0.000000 ICntrl=     500 IOpCl=  0 I1Cent=   200000004 NGrid=           0
         NMat0=    1 NMatS0=      1 NMatT0=    0 NMatD0=    1 NMtDS0=    0 NMtDT0=    0
 Petite list used in FoFCou.
 Keep R1 ints in memory in symmetry-blocked form, NReq=1142897.
 Requested convergence on RMS density matrix=1.00D-08 within 128 cycles.
 Requested convergence on MAX density matrix=1.00D-06.
 Requested convergence on             energy=1.00D-06.
 No special actions if energy rises.
 SCF Done:  E(RHF) =  -150.785554836     A.U. after   10 cycles
            NFock= 10  Conv=0.25D-08     -V/T= 1.9997
 Calling FoFJK, ICntrl=      2127 FMM=F ISym2X=1 I1Cent= 0 IOpClX= 0 NMat=1 NMatS=1 NMatT=0.
 ***** Axes restored to original set *****
 -------------------------------------------------------------------
 Center     Atomic                   Forces (Hartrees/Bohr)
 Number     Number              X              Y              Z
 -------------------------------------------------------------------
      1        8           0.000215012   -0.000341553    0.000598814
      2        8          -0.000215012    0.000341553    0.000598814
      3        1          -0.000066414    0.000100985   -0.000598814
      4        1           0.000066414   -0.000100985   -0.000598814
 -------------------------------------------------------------------
 Cartesian Forces:  Max     0.000598814 RMS     0.000386146

 GradGradGradGradGradGradGradGradGradGradGradGradGradGradGradGradGradGrad
 Berny optimization.
 FormGI is forming the generalized inverse of G from B-inverse, IUseBI=4.
 Internal  Forces:  Max     0.001059279 RMS     0.000454880
 Search for a local minimum.
 Step number   1 out of a maximum of  100 on scan point     4 out of    73
 All quantities printed in internal units (Hartrees-Bohrs-Radians)
 Mixed Optimization -- RFO/linear search
 Second derivative matrix not updated -- first step.
 The second derivative matrix:
                          R1        R2        R3        A1        A2
           R1           0.45360
           R2           0.00000   0.58278
           R3           0.00000   0.00000   0.58278
           A1           0.00000   0.00000   0.00000   0.16000
           A2           0.00000   0.00000   0.00000   0.00000   0.16000
           D1           0.00000   0.00000   0.00000   0.00000   0.00000
                          D1
           D1           0.01274
 ITU=  0
     Eigenvalues ---    0.16000   0.16000   0.45360   0.58278   0.58278
     Eigenvalues --- 1000.00000
 RFO step:  Lambda=-5.04868769D-07 EMin= 1.60000000D-01
 Linear search not attempted -- first point.
 Iteration  1 RMS(Cart)=  0.00067418 RMS(Int)=  0.00000024
 Iteration  2 RMS(Cart)=  0.00000027 RMS(Int)=  0.00000000
 Iteration  1 RMS(Cart)=  0.00000000 RMS(Int)=  0.00000000
 ClnCor:  largest displacement from symmetrization is 7.44D-14 for atom     2.
 Variable       Old X    -DE/DX   Delta X   Delta X   Delta X     New X
                                 (Linear)    (Quad)   (Total)
    R1        2.64852  -0.00024   0.00000  -0.00053  -0.00053   2.64799
    R2        1.79003   0.00003   0.00000   0.00005   0.00005   1.79008
    R3        1.79003   0.00003   0.00000   0.00005   0.00005   1.79008
    A1        1.75904   0.00017   0.00000   0.00108   0.00108   1.76012
    A2        1.75904   0.00017   0.00000   0.00108   0.00108   1.76012
    D1       -2.87979   0.00106   0.00000   0.00000   0.00000  -2.87979
         Item               Value     Threshold  Converged?
 Maximum Force            0.000240     0.000450     YES
 RMS     Force            0.000155     0.000300     YES
 Maximum Displacement     0.000864     0.001800     YES
 RMS     Displacement     0.000674     0.001200     YES
 Predicted change in Energy=-2.524344D-07
 Optimization completed.
    -- Stationary point found.
                           ----------------------------
                           !   Optimized Parameters   !
                           ! (Angstroms and Degrees)  !
 --------------------------                            --------------------------
 ! Name  Definition              Value          Derivative Info.                !
 --------------------------------------------------------------------------------
 ! R1    R(1,2)                  1.4015         -DE/DX =   -0.0002              !
 ! R2    R(1,3)                  0.9472         -DE/DX =    0.0                 !
 ! R3    R(2,4)                  0.9472         -DE/DX =    0.0                 !
 ! A1    A(2,1,3)              100.7854         -DE/DX =    0.0002              !
 ! A2    A(1,2,4)              100.7854         -DE/DX =    0.0002              !
 ! D1    D(3,1,2,4)           -165.0            -DE/DX =    0.0011              !
 --------------------------------------------------------------------------------
 Iteration  1 RMS(Cart)=  0.03138663 RMS(Int)=  0.00095499
 Iteration  2 RMS(Cart)=  0.00076395 RMS(Int)=  0.00000012
 Iteration  3 RMS(Cart)=  0.00000009 RMS(Int)=  0.00000000
 Iteration  1 RMS(Cart)=  0.00000000 RMS(Int)=  0.00000000
 GradGradGradGradGradGradGradGradGradGradGradGradGradGradGradGradGradGrad

                          Input orientation:                          
 ---------------------------------------------------------------------
 Center     Atomic      Atomic             Coordinates (Angstroms)
 Number     Number       Type             X           Y           Z
 ---------------------------------------------------------------------
      1          8           0        0.004758    0.700612    0.080776
      2          8           0       -0.004758   -0.700612    0.080776
      3          1           0        0.922156    0.872656   -0.080776
      4          1           0       -0.922156   -0.872656   -0.080776
 ---------------------------------------------------------------------
                    Distance matrix (angstroms):
                    1          2          3          4
     1  O    0.000000
     2  O    1.401257   0.000000
     3  H    0.947268   1.833150   0.000000
     4  H    1.833150   0.947268   2.539212   0.000000
 Stoichiometry    H2O2
 Framework group  C2[X(H2O2)]
 Deg. of freedom     4
 Full point group                 C2      NOp   2
 Largest Abelian subgroup         C2      NOp   2
 Largest concise Abelian subgroup C2      NOp   2
                         Standard orientation:                         
 ---------------------------------------------------------------------
 Center     Atomic      Atomic             Coordinates (Angstroms)
 Number     Number       Type             X           Y           Z
 ---------------------------------------------------------------------
      1          8           0        0.000000    0.700628    0.017950
      2          8           0        0.000000   -0.700628    0.017950
      3          1           0        0.916209    0.878898   -0.143602
      4          1           0       -0.916209   -0.878898   -0.143602
 ---------------------------------------------------------------------
 Rotational constants (GHZ):    321.0630272     28.9166552     26.6659894
 Standard basis: CC-pVDZ (5D, 7F)
 There are    20 symmetry adapted cartesian basis functions of A   symmetry.
 There are    20 symmetry adapted cartesian basis functions of B   symmetry.
 There are    19 symmetry adapted basis functions of A   symmetry.
 There are    19 symmetry adapted basis functions of B   symmetry.
    38 basis functions,    80 primitive gaussians,    40 cartesian basis functions
     9 alpha electrons        9 beta electrons
       nuclear repulsion energy        37.9345591979 Hartrees.
 NAtoms=    4 NActive=    4 NUniq=    2 SFac= 4.00D+00 NAtFMM=   60 NAOKFM=F Big=F
 Integral buffers will be    131072 words long.
 Raffenetti 1 integral format.
 Two-electron integral symmetry is turned on.
 One-electron integrals computed using PRISM.
 NBasis=    38 RedAO= T EigKep=  1.55D-02  NBF=    19    19
 NBsUse=    38 1.00D-06 EigRej= -1.00D+00 NBFU=    19    19
 Initial guess from the checkpoint file:  "/blue/chm6586/le.chen/hw3/q2/Gau-45115.chk"
 B after Tr=     0.000000    0.000000    0.000000
         Rot=    1.000000    0.000000    0.000000   -0.000574 Ang=  -0.07 deg.
 Initial guess orbital symmetries:
       Occupied  (A) (B) (A) (B) (B) (A) (A) (A) (B)
       Virtual   (A) (A) (A) (A) (A) (A) (A) (A) (A) (A) (A) (A)
                 (A) (A) (B) (B) (B) (B) (B) (B) (B) (B) (B) (B)
                 (B) (B) (B) (B) (B)
 ExpMin= 1.22D-01 ExpMax= 1.17D+04 ExpMxC= 4.01D+02 IAcc=1 IRadAn=         1 AccDes= 0.00D+00
 Harris functional with IExCor=  205 and IRadAn=       1 diagonalized for initial guess.
 HarFok:  IExCor=  205 AccDes= 0.00D+00 IRadAn=         1 IDoV= 1 UseB2=F ITyADJ=14
 ICtDFT=  3500011 ScaDFX=  1.000000  1.000000  1.000000  1.000000
 FoFCou: FMM=F IPFlag=           0 FMFlag=      100000 FMFlg1=           0
         NFxFlg=           0 DoJE=T BraDBF=F KetDBF=T FulRan=T
         wScrn=  0.000000 ICntrl=     500 IOpCl=  0 I1Cent=   200000004 NGrid=           0
         NMat0=    1 NMatS0=      1 NMatT0=    0 NMatD0=    1 NMtDS0=    0 NMtDT0=    0
 Petite list used in FoFCou.
 Keep R1 ints in memory in symmetry-blocked form, NReq=1142897.
 Requested convergence on RMS density matrix=1.00D-08 within 128 cycles.
 Requested convergence on MAX density matrix=1.00D-06.
 Requested convergence on             energy=1.00D-06.
 No special actions if energy rises.
 SCF Done:  E(RHF) =  -150.785660705     A.U. after   10 cycles
            NFock= 10  Conv=0.27D-08     -V/T= 1.9997
 Calling FoFJK, ICntrl=      2127 FMM=F ISym2X=1 I1Cent= 0 IOpClX= 0 NMat=1 NMatS=1 NMatT=0.
 ***** Axes restored to original set *****
 -------------------------------------------------------------------
 Center     Atomic                   Forces (Hartrees/Bohr)
 Number     Number              X              Y              Z
 -------------------------------------------------------------------
      1        8           0.000317724   -0.000491810    0.000756329
      2        8          -0.000317724    0.000491810    0.000756329
      3        1          -0.000115105    0.000135009   -0.000756329
      4        1           0.000115105   -0.000135009   -0.000756329
 -------------------------------------------------------------------
 Cartesian Forces:  Max     0.000756329 RMS     0.000503052

 GradGradGradGradGradGradGradGradGradGradGradGradGradGradGradGradGradGrad
 Berny optimization.
 FormGI is forming the generalized inverse of G from B-inverse, IUseBI=4.
 Internal  Forces:  Max     0.001344914 RMS     0.000583760
 Search for a local minimum.
 Step number   1 out of a maximum of  100 on scan point     5 out of    73
 All quantities printed in internal units (Hartrees-Bohrs-Radians)
 Mixed Optimization -- RFO/linear search
 Second derivative matrix not updated -- first step.
 The second derivative matrix:
                          R1        R2        R3        A1        A2
           R1           0.45360
           R2           0.00000   0.58278
           R3           0.00000   0.00000   0.58278
           A1           0.00000   0.00000   0.00000   0.16000
           A2           0.00000   0.00000   0.00000   0.00000   0.16000
           D1           0.00000   0.00000   0.00000   0.00000   0.00000
                          D1
           D1           0.01274
 ITU=  0
     Eigenvalues ---    0.16000   0.16000   0.45360   0.58278   0.58278
     Eigenvalues --- 1000.00000
 RFO step:  Lambda=-9.47071054D-07 EMin= 1.60000000D-01
 Linear search not attempted -- first point.
 Iteration  1 RMS(Cart)=  0.00088889 RMS(Int)=  0.00000044
 Iteration  2 RMS(Cart)=  0.00000049 RMS(Int)=  0.00000000
 Iteration  1 RMS(Cart)=  0.00000000 RMS(Int)=  0.00000000
 ClnCor:  largest displacement from symmetrization is 7.90D-14 for atom     2.
 Variable       Old X    -DE/DX   Delta X   Delta X   Delta X     New X
                                 (Linear)    (Quad)   (Total)
    R1        2.64799  -0.00036   0.00000  -0.00078  -0.00078   2.64721
    R2        1.79008   0.00004   0.00000   0.00007   0.00007   1.79015
    R3        1.79008   0.00004   0.00000   0.00007   0.00007   1.79015
    A1        1.76012   0.00023   0.00000   0.00144   0.00144   1.76156
    A2        1.76012   0.00023   0.00000   0.00144   0.00144   1.76156
    D1       -2.79253   0.00134   0.00000   0.00000   0.00000  -2.79253
         Item               Value     Threshold  Converged?
 Maximum Force            0.000355     0.000450     YES
 RMS     Force            0.000217     0.000300     YES
 Maximum Displacement     0.001132     0.001800     YES
 RMS     Displacement     0.000889     0.001200     YES
 Predicted change in Energy=-4.735355D-07
 Optimization completed.
    -- Stationary point found.
                           ----------------------------
                           !   Optimized Parameters   !
                           ! (Angstroms and Degrees)  !
 --------------------------                            --------------------------
 ! Name  Definition              Value          Derivative Info.                !
 --------------------------------------------------------------------------------
 ! R1    R(1,2)                  1.4013         -DE/DX =   -0.0004              !
 ! R2    R(1,3)                  0.9473         -DE/DX =    0.0                 !
 ! R3    R(2,4)                  0.9473         -DE/DX =    0.0                 !
 ! A1    A(2,1,3)              100.8474         -DE/DX =    0.0002              !
 ! A2    A(1,2,4)              100.8474         -DE/DX =    0.0002              !
 ! D1    D(3,1,2,4)           -160.0            -DE/DX =    0.0013              !
 --------------------------------------------------------------------------------
 Iteration  1 RMS(Cart)=  0.03143214 RMS(Int)=  0.00095525
 Iteration  2 RMS(Cart)=  0.00075842 RMS(Int)=  0.00000012
 Iteration  3 RMS(Cart)=  0.00000008 RMS(Int)=  0.00000000
 Iteration  1 RMS(Cart)=  0.00000000 RMS(Int)=  0.00000000
 GradGradGradGradGradGradGradGradGradGradGradGradGradGradGradGradGradGrad

                          Input orientation:                          
 ---------------------------------------------------------------------
 Center     Atomic      Atomic             Coordinates (Angstroms)
 Number     Number       Type             X           Y           Z
 ---------------------------------------------------------------------
      1          8           0        0.007494    0.700381    0.100658
      2          8           0       -0.007494   -0.700381    0.100658
      3          1           0        0.917439    0.870270   -0.100658
      4          1           0       -0.917439   -0.870270   -0.100658
 ---------------------------------------------------------------------
                    Distance matrix (angstroms):
                    1          2          3          4
     1  O    0.000000
     2  O    1.400842   0.000000
     3  H    0.947307   1.833841   0.000000
     4  H    1.833841   0.947307   2.529082   0.000000
 Stoichiometry    H2O2
 Framework group  C2[X(H2O2)]
 Deg. of freedom     4
 Full point group                 C2      NOp   2
 Largest Abelian subgroup         C2      NOp   2
 Largest concise Abelian subgroup C2      NOp   2
                         Standard orientation:                         
 ---------------------------------------------------------------------
 Center     Atomic      Atomic             Coordinates (Angstroms)
 Number     Number       Type             X           Y           Z
 ---------------------------------------------------------------------
      1          8           0        0.000000    0.700421    0.022368
      2          8           0        0.000000   -0.700421    0.022368
      3          1           0        0.908075    0.880036   -0.178947
      4          1           0       -0.908075   -0.880036   -0.178947
 ---------------------------------------------------------------------
 Rotational constants (GHZ):    321.0195360     28.8846892     26.7155577
 Standard basis: CC-pVDZ (5D, 7F)
 There are    20 symmetry adapted cartesian basis functions of A   symmetry.
 There are    20 symmetry adapted cartesian basis functions of B   symmetry.
 There are    19 symmetry adapted basis functions of A   symmetry.
 There are    19 symmetry adapted basis functions of B   symmetry.
    38 basis functions,    80 primitive gaussians,    40 cartesian basis functions
     9 alpha electrons        9 beta electrons
       nuclear repulsion energy        37.9404479856 Hartrees.
 NAtoms=    4 NActive=    4 NUniq=    2 SFac= 4.00D+00 NAtFMM=   60 NAOKFM=F Big=F
 Integral buffers will be    131072 words long.
 Raffenetti 1 integral format.
 Two-electron integral symmetry is turned on.
 One-electron integrals computed using PRISM.
 NBasis=    38 RedAO= T EigKep=  1.55D-02  NBF=    19    19
 NBsUse=    38 1.00D-06 EigRej= -1.00D+00 NBFU=    19    19
 Initial guess from the checkpoint file:  "/blue/chm6586/le.chen/hw3/q2/Gau-45115.chk"
 B after Tr=     0.000000    0.000000    0.000000
         Rot=    1.000000    0.000000    0.000000   -0.000740 Ang=  -0.08 deg.
 Initial guess orbital symmetries:
       Occupied  (A) (B) (A) (B) (B) (A) (A) (A) (B)
       Virtual   (A) (A) (A) (A) (A) (A) (A) (A) (A) (A) (A) (A)
                 (A) (A) (B) (B) (B) (B) (B) (B) (B) (B) (B) (B)
                 (B) (B) (B) (B) (B)
 ExpMin= 1.22D-01 ExpMax= 1.17D+04 ExpMxC= 4.01D+02 IAcc=1 IRadAn=         1 AccDes= 0.00D+00
 Harris functional with IExCor=  205 and IRadAn=       1 diagonalized for initial guess.
 HarFok:  IExCor=  205 AccDes= 0.00D+00 IRadAn=         1 IDoV= 1 UseB2=F ITyADJ=14
 ICtDFT=  3500011 ScaDFX=  1.000000  1.000000  1.000000  1.000000
 FoFCou: FMM=F IPFlag=           0 FMFlag=      100000 FMFlg1=           0
         NFxFlg=           0 DoJE=T BraDBF=F KetDBF=T FulRan=T
         wScrn=  0.000000 ICntrl=     500 IOpCl=  0 I1Cent=   200000004 NGrid=           0
         NMat0=    1 NMatS0=      1 NMatT0=    0 NMatD0=    1 NMtDS0=    0 NMtDT0=    0
 Petite list used in FoFCou.
 Keep R1 ints in memory in symmetry-blocked form, NReq=1142897.
 Requested convergence on RMS density matrix=1.00D-08 within 128 cycles.
 Requested convergence on MAX density matrix=1.00D-06.
 Requested convergence on             energy=1.00D-06.
 No special actions if energy rises.
 SCF Done:  E(RHF) =  -150.785789600     A.U. after   10 cycles
            NFock= 10  Conv=0.31D-08     -V/T= 1.9997
 Calling FoFJK, ICntrl=      2127 FMM=F ISym2X=1 I1Cent= 0 IOpClX= 0 NMat=1 NMatS=1 NMatT=0.
 ***** Axes restored to original set *****
 -------------------------------------------------------------------
 Center     Atomic                   Forces (Hartrees/Bohr)
 Number     Number              X              Y              Z
 -------------------------------------------------------------------
      1        8           0.000426978   -0.000635371    0.000879153
      2        8          -0.000426978    0.000635371    0.000879153
      3        1          -0.000169361    0.000170503   -0.000879153
      4        1           0.000169361   -0.000170503   -0.000879153
 -------------------------------------------------------------------
 Cartesian Forces:  Max     0.000879153 RMS     0.000604095

 GradGradGradGradGradGradGradGradGradGradGradGradGradGradGradGradGradGrad
 Berny optimization.
 FormGI is forming the generalized inverse of G from B-inverse, IUseBI=4.
 Internal  Forces:  Max     0.001573758 RMS     0.000690752
 Search for a local minimum.
 Step number   1 out of a maximum of  100 on scan point     6 out of    73
 All quantities printed in internal units (Hartrees-Bohrs-Radians)
 Mixed Optimization -- RFO/linear search
 Second derivative matrix not updated -- first step.
 The second derivative matrix:
                          R1        R2        R3        A1        A2
           R1           0.45360
           R2           0.00000   0.58278
           R3           0.00000   0.00000   0.58278
           A1           0.00000   0.00000   0.00000   0.16000
           A2           0.00000   0.00000   0.00000   0.00000   0.16000
           D1           0.00000   0.00000   0.00000   0.00000   0.00000
                          D1
           D1           0.01274
 ITU=  0
     Eigenvalues ---    0.16000   0.16000   0.45360   0.58278   0.58278
     Eigenvalues --- 1000.00000
 RFO step:  Lambda=-1.52226025D-06 EMin= 1.60000000D-01
 Linear search not attempted -- first point.
 Iteration  1 RMS(Cart)=  0.00111540 RMS(Int)=  0.00000072
 Iteration  2 RMS(Cart)=  0.00000078 RMS(Int)=  0.00000000
 Iteration  1 RMS(Cart)=  0.00000000 RMS(Int)=  0.00000000
 ClnCor:  largest displacement from symmetrization is 3.52D-14 for atom     4.
 Variable       Old X    -DE/DX   Delta X   Delta X   Delta X     New X
                                 (Linear)    (Quad)   (Total)
    R1        2.64721  -0.00046   0.00000  -0.00102  -0.00102   2.64619
    R2        1.79015   0.00005   0.00000   0.00009   0.00009   1.79024
    R3        1.79015   0.00005   0.00000   0.00009   0.00009   1.79024
    A1        1.76156   0.00029   0.00000   0.00180   0.00180   1.76336
    A2        1.76156   0.00029   0.00000   0.00180   0.00180   1.76336
    D1       -2.70526   0.00157   0.00000   0.00000   0.00000  -2.70526
         Item               Value     Threshold  Converged?
 Maximum Force            0.000462     0.000450     NO 
 RMS     Force            0.000278     0.000300     YES
 Maximum Displacement     0.001419     0.001800     YES
 RMS     Displacement     0.001115     0.001200     YES
 Predicted change in Energy=-7.611301D-07
 GradGradGradGradGradGradGradGradGradGradGradGradGradGradGradGradGradGrad

                          Input orientation:                          
 ---------------------------------------------------------------------
 Center     Atomic      Atomic             Coordinates (Angstroms)
 Number     Number       Type             X           Y           Z
 ---------------------------------------------------------------------
      1          8           0        0.008002    0.700106    0.100628
      2          8           0       -0.008002   -0.700106    0.100628
      3          1           0        0.917820    0.871021   -0.100628
      4          1           0       -0.917820   -0.871021   -0.100628
 ---------------------------------------------------------------------
                    Distance matrix (angstroms):
                    1          2          3          4
     1  O    0.000000
     2  O    1.400303   0.000000
     3  H    0.947356   1.834690   0.000000
     4  H    1.834690   0.947356   2.530668   0.000000
 Stoichiometry    H2O2
 Framework group  C2[X(H2O2)]
 Deg. of freedom     4
 Full point group                 C2      NOp   2
 Largest Abelian subgroup         C2      NOp   2
 Largest concise Abelian subgroup C2      NOp   2
                         Standard orientation:                         
 ---------------------------------------------------------------------
 Center     Atomic      Atomic             Coordinates (Angstroms)
 Number     Number       Type             X           Y           Z
 ---------------------------------------------------------------------
      1          8           0        0.000000    0.700151    0.022362
      2          8           0        0.000000   -0.700151    0.022362
      3          1           0        0.907805    0.881454   -0.178894
      4          1           0       -0.907805   -0.881454   -0.178894
 ---------------------------------------------------------------------
 Rotational constants (GHZ):    321.3309067     28.8955865     26.7269063
 Standard basis: CC-pVDZ (5D, 7F)
 There are    20 symmetry adapted cartesian basis functions of A   symmetry.
 There are    20 symmetry adapted cartesian basis functions of B   symmetry.
 There are    19 symmetry adapted basis functions of A   symmetry.
 There are    19 symmetry adapted basis functions of B   symmetry.
    38 basis functions,    80 primitive gaussians,    40 cartesian basis functions
     9 alpha electrons        9 beta electrons
       nuclear repulsion energy        37.9470182964 Hartrees.
 NAtoms=    4 NActive=    4 NUniq=    2 SFac= 4.00D+00 NAtFMM=   60 NAOKFM=F Big=F
 Integral buffers will be    131072 words long.
 Raffenetti 1 integral format.
 Two-electron integral symmetry is turned on.
 One-electron integrals computed using PRISM.
 NBasis=    38 RedAO= T EigKep=  1.55D-02  NBF=    19    19
 NBsUse=    38 1.00D-06 EigRej= -1.00D+00 NBFU=    19    19
 Initial guess from the checkpoint file:  "/blue/chm6586/le.chen/hw3/q2/Gau-45115.chk"
 B after Tr=     0.000000    0.000000    0.000000
         Rot=    1.000000    0.000000    0.000000   -0.000138 Ang=  -0.02 deg.
 Initial guess orbital symmetries:
       Occupied  (A) (B) (A) (B) (B) (A) (A) (A) (B)
       Virtual   (A) (A) (A) (A) (A) (A) (A) (A) (A) (A) (A) (A)
                 (A) (A) (B) (B) (B) (B) (B) (B) (B) (B) (B) (B)
                 (B) (B) (B) (B) (B)
 Keep R1 ints in memory in symmetry-blocked form, NReq=1142897.
 Requested convergence on RMS density matrix=1.00D-08 within 128 cycles.
 Requested convergence on MAX density matrix=1.00D-06.
 Requested convergence on             energy=1.00D-06.
 No special actions if energy rises.
 SCF Done:  E(RHF) =  -150.785790182     A.U. after    8 cycles
            NFock=  8  Conv=0.69D-08     -V/T= 1.9997
 Calling FoFJK, ICntrl=      2127 FMM=F ISym2X=1 I1Cent= 0 IOpClX= 0 NMat=1 NMatS=1 NMatT=0.
 ***** Axes restored to original set *****
 -------------------------------------------------------------------
 Center     Atomic                   Forces (Hartrees/Bohr)
 Number     Number              X              Y              Z
 -------------------------------------------------------------------
      1        8           0.000106378   -0.000199553    0.000887897
      2        8          -0.000106378    0.000199553    0.000887897
      3        1          -0.000194544   -0.000101747   -0.000887897
      4        1           0.000194544    0.000101747   -0.000887897
 -------------------------------------------------------------------
 Cartesian Forces:  Max     0.000887897 RMS     0.000528529

 GradGradGradGradGradGradGradGradGradGradGradGradGradGradGradGradGradGrad
 Berny optimization.
 Using GEDIIS/GDIIS optimizer.
 FormGI is forming the generalized inverse of G from B-inverse, IUseBI=4.
 Internal  Forces:  Max     0.001596731 RMS     0.000671946
 Search for a local minimum.
 Step number   2 out of a maximum of  100 on scan point     6 out of    73
 All quantities printed in internal units (Hartrees-Bohrs-Radians)
 Mixed Optimization -- En-DIIS/RFO-DIIS
 Update second derivatives using D2CorX and points    1    2
 DE= -5.82D-07 DEPred=-7.61D-07 R= 7.65D-01
 Trust test= 7.65D-01 RLast= 2.75D-03 DXMaxT set to 3.00D-01
 The second derivative matrix:
                          R1        R2        R3        A1        A2
           R1           0.32691
           R2           0.01056   0.58351
           R3           0.01056   0.00074   0.58351
           A1           0.04747   0.00754   0.00754   0.22397
           A2           0.04747   0.00754   0.00754   0.06397   0.22397
           D1           0.00195  -0.00087  -0.00087  -0.00577  -0.00577
                          D1
           D1           0.01302
 ITU=  0  0
 Use linear search instead of GDIIS.
     Eigenvalues ---    0.16000   0.23750   0.37522   0.58278   0.58638
     Eigenvalues --- 1000.00000
 RFO step:  Lambda=-3.54103992D-07 EMin= 1.60000000D-01
 Quartic linear search produced a step of -0.19051.
 Iteration  1 RMS(Cart)=  0.00057836 RMS(Int)=  0.00000008
 Iteration  2 RMS(Cart)=  0.00000006 RMS(Int)=  0.00000000
 Iteration  1 RMS(Cart)=  0.00000000 RMS(Int)=  0.00000000
 ClnCor:  largest displacement from symmetrization is 1.90D-14 for atom     4.
 Variable       Old X    -DE/DX   Delta X   Delta X   Delta X     New X
                                 (Linear)    (Quad)   (Total)
    R1        2.64619  -0.00030   0.00019  -0.00097  -0.00078   2.64541
    R2        1.79024  -0.00002  -0.00002   0.00002   0.00000   1.79024
    R3        1.79024  -0.00002  -0.00002   0.00002   0.00000   1.79024
    A1        1.76336  -0.00018  -0.00034  -0.00017  -0.00051   1.76285
    A2        1.76336  -0.00018  -0.00034  -0.00017  -0.00051   1.76285
    D1       -2.70526   0.00160   0.00000   0.00000   0.00000  -2.70526
         Item               Value     Threshold  Converged?
 Maximum Force            0.000302     0.000450     YES
 RMS     Force            0.000179     0.000300     YES
 Maximum Displacement     0.000709     0.001800     YES
 RMS     Displacement     0.000578     0.001200     YES
 Predicted change in Energy=-2.111967D-07
 Optimization completed.
    -- Stationary point found.
                           ----------------------------
                           !   Optimized Parameters   !
                           ! (Angstroms and Degrees)  !
 --------------------------                            --------------------------
 ! Name  Definition              Value          Derivative Info.                !
 --------------------------------------------------------------------------------
 ! R1    R(1,2)                  1.4003         -DE/DX =   -0.0003              !
 ! R2    R(1,3)                  0.9474         -DE/DX =    0.0                 !
 ! R3    R(2,4)                  0.9474         -DE/DX =    0.0                 !
 ! A1    A(2,1,3)              101.0332         -DE/DX =   -0.0002              !
 ! A2    A(1,2,4)              101.0332         -DE/DX =   -0.0002              !
 ! D1    D(3,1,2,4)           -155.0            -DE/DX =    0.0016              !
 --------------------------------------------------------------------------------
 Iteration  1 RMS(Cart)=  0.03149050 RMS(Int)=  0.00095576
 Iteration  2 RMS(Cart)=  0.00075188 RMS(Int)=  0.00000011
 Iteration  3 RMS(Cart)=  0.00000008 RMS(Int)=  0.00000000
 Iteration  1 RMS(Cart)=  0.00000000 RMS(Int)=  0.00000000
 GradGradGradGradGradGradGradGradGradGradGradGradGradGradGradGradGradGrad

                          Input orientation:                          
 ---------------------------------------------------------------------
 Center     Atomic      Atomic             Coordinates (Angstroms)
 Number     Number       Type             X           Y           Z
 ---------------------------------------------------------------------
      1          8           0        0.010623    0.699865    0.120343
      2          8           0       -0.010623   -0.699865    0.120343
      3          1           0        0.911515    0.867039   -0.120343
      4          1           0       -0.911515   -0.867039   -0.120343
 ---------------------------------------------------------------------
                    Distance matrix (angstroms):
                    1          2          3          4
     1  O    0.000000
     2  O    1.399892   0.000000
     3  H    0.947356   1.833974   0.000000
     4  H    1.833974   0.947356   2.516042   0.000000
 Stoichiometry    H2O2
 Framework group  C2[X(H2O2)]
 Deg. of freedom     4
 Full point group                 C2      NOp   2
 Largest Abelian subgroup         C2      NOp   2
 Largest concise Abelian subgroup C2      NOp   2
                         Standard orientation:                         
 ---------------------------------------------------------------------
 Center     Atomic      Atomic             Coordinates (Angstroms)
 Number     Number       Type             X           Y           Z
 ---------------------------------------------------------------------
      1          8           0        0.000000    0.699946    0.026743
      2          8           0        0.000000   -0.699946    0.026743
      3          1           0        0.898251    0.880774   -0.213943
      4          1           0       -0.898251   -0.880774   -0.213943
 ---------------------------------------------------------------------
 Rotational constants (GHZ):    320.8888594     28.8666688     26.7926478
 Standard basis: CC-pVDZ (5D, 7F)
 There are    20 symmetry adapted cartesian basis functions of A   symmetry.
 There are    20 symmetry adapted cartesian basis functions of B   symmetry.
 There are    19 symmetry adapted basis functions of A   symmetry.
 There are    19 symmetry adapted basis functions of B   symmetry.
    38 basis functions,    80 primitive gaussians,    40 cartesian basis functions
     9 alpha electrons        9 beta electrons
       nuclear repulsion energy        37.9571420325 Hartrees.
 NAtoms=    4 NActive=    4 NUniq=    2 SFac= 4.00D+00 NAtFMM=   60 NAOKFM=F Big=F
 Integral buffers will be    131072 words long.
 Raffenetti 1 integral format.
 Two-electron integral symmetry is turned on.
 One-electron integrals computed using PRISM.
 NBasis=    38 RedAO= T EigKep=  1.56D-02  NBF=    19    19
 NBsUse=    38 1.00D-06 EigRej= -1.00D+00 NBFU=    19    19
 Initial guess from the checkpoint file:  "/blue/chm6586/le.chen/hw3/q2/Gau-45115.chk"
 B after Tr=     0.000000    0.000000    0.000000
         Rot=    1.000000    0.000000    0.000000   -0.000708 Ang=  -0.08 deg.
 Initial guess orbital symmetries:
       Occupied  (A) (B) (A) (B) (B) (A) (A) (A) (B)
       Virtual   (A) (A) (A) (A) (A) (A) (A) (A) (A) (A) (A) (A)
                 (A) (A) (B) (B) (B) (B) (B) (B) (B) (B) (B) (B)
                 (B) (B) (B) (B) (B)
 ExpMin= 1.22D-01 ExpMax= 1.17D+04 ExpMxC= 4.01D+02 IAcc=1 IRadAn=         1 AccDes= 0.00D+00
 Harris functional with IExCor=  205 and IRadAn=       1 diagonalized for initial guess.
 HarFok:  IExCor=  205 AccDes= 0.00D+00 IRadAn=         1 IDoV= 1 UseB2=F ITyADJ=14
 ICtDFT=  3500011 ScaDFX=  1.000000  1.000000  1.000000  1.000000
 FoFCou: FMM=F IPFlag=           0 FMFlag=      100000 FMFlg1=           0
         NFxFlg=           0 DoJE=T BraDBF=F KetDBF=T FulRan=T
         wScrn=  0.000000 ICntrl=     500 IOpCl=  0 I1Cent=   200000004 NGrid=           0
         NMat0=    1 NMatS0=      1 NMatT0=    0 NMatD0=    1 NMtDS0=    0 NMtDT0=    0
 Petite list used in FoFCou.
 Keep R1 ints in memory in symmetry-blocked form, NReq=1142897.
 Requested convergence on RMS density matrix=1.00D-08 within 128 cycles.
 Requested convergence on MAX density matrix=1.00D-06.
 Requested convergence on             energy=1.00D-06.
 No special actions if energy rises.
 SCF Done:  E(RHF) =  -150.785935915     A.U. after   10 cycles
            NFock= 10  Conv=0.35D-08     -V/T= 1.9997
 Calling FoFJK, ICntrl=      2127 FMM=F ISym2X=1 I1Cent= 0 IOpClX= 0 NMat=1 NMatS=1 NMatT=0.
 ***** Axes restored to original set *****
 -------------------------------------------------------------------
 Center     Atomic                   Forces (Hartrees/Bohr)
 Number     Number              X              Y              Z
 -------------------------------------------------------------------
      1        8           0.000713561   -0.000483454    0.000950932
      2        8          -0.000713561    0.000483454    0.000950932
      3        1          -0.000246098    0.000319428   -0.000950932
      4        1           0.000246098   -0.000319428   -0.000950932
 -------------------------------------------------------------------
 Cartesian Forces:  Max     0.000950932 RMS     0.000672562

 GradGradGradGradGradGradGradGradGradGradGradGradGradGradGradGradGradGrad
 Berny optimization.
 FormGI is forming the generalized inverse of G from B-inverse, IUseBI=4.
 Internal  Forces:  Max     0.001728282 RMS     0.000778065
 Search for a local minimum.
 Step number   1 out of a maximum of  100 on scan point     7 out of    73
 All quantities printed in internal units (Hartrees-Bohrs-Radians)
 Mixed Optimization -- RFO/linear search
 Second derivative matrix not updated -- first step.
 The second derivative matrix:
                          R1        R2        R3        A1        A2
           R1           0.32691
           R2           0.01056   0.58351
           R3           0.01056   0.00074   0.58351
           A1           0.04747   0.00754   0.00754   0.22397
           A2           0.04747   0.00754   0.00754   0.06397   0.22397
           D1           0.00195  -0.00087  -0.00087  -0.00577  -0.00577
                          D1
           D1           0.01302
 ITU=  0
     Eigenvalues ---    0.16000   0.23750   0.37522   0.58278   0.58638
     Eigenvalues --- 1000.00000
 RFO step:  Lambda=-2.50398230D-06 EMin= 1.60000000D-01
 Linear search not attempted -- first point.
 Iteration  1 RMS(Cart)=  0.00130844 RMS(Int)=  0.00000099
 Iteration  2 RMS(Cart)=  0.00000106 RMS(Int)=  0.00000000
 Iteration  3 RMS(Cart)=  0.00000000 RMS(Int)=  0.00000000
 Iteration  1 RMS(Cart)=  0.00000000 RMS(Int)=  0.00000000
 ClnCor:  largest displacement from symmetrization is 8.72D-14 for atom     4.
 Variable       Old X    -DE/DX   Delta X   Delta X   Delta X     New X
                                 (Linear)    (Quad)   (Total)
    R1        2.64541  -0.00016   0.00000  -0.00109  -0.00109   2.64432
    R2        1.79024   0.00006   0.00000   0.00008   0.00008   1.79032
    R3        1.79024   0.00006   0.00000   0.00008   0.00008   1.79032
    A1        1.76285   0.00055   0.00000   0.00210   0.00210   1.76495
    A2        1.76285   0.00055   0.00000   0.00210   0.00210   1.76495
    D1       -2.61799   0.00173   0.00000   0.00000   0.00000  -2.61799
         Item               Value     Threshold  Converged?
 Maximum Force            0.000553     0.000450     NO 
 RMS     Force            0.000359     0.000300     NO 
 Maximum Displacement     0.001676     0.001800     YES
 RMS     Displacement     0.001308     0.001200     NO 
 Predicted change in Energy=-1.251991D-06
 GradGradGradGradGradGradGradGradGradGradGradGradGradGradGradGradGradGrad

                          Input orientation:                          
 ---------------------------------------------------------------------
 Center     Atomic      Atomic             Coordinates (Angstroms)
 Number     Number       Type             X           Y           Z
 ---------------------------------------------------------------------
      1          8           0        0.011223    0.699566    0.120298
      2          8           0       -0.011223   -0.699566    0.120298
      3          1           0        0.911959    0.867926   -0.120298
      4          1           0       -0.911959   -0.867926   -0.120298
 ---------------------------------------------------------------------
                    Distance matrix (angstroms):
                    1          2          3          4
     1  O    0.000000
     2  O    1.399313   0.000000
     3  H    0.947395   1.834989   0.000000
     4  H    1.834989   0.947395   2.517908   0.000000
 Stoichiometry    H2O2
 Framework group  C2[X(H2O2)]
 Deg. of freedom     4
 Full point group                 C2      NOp   2
 Largest Abelian subgroup         C2      NOp   2
 Largest concise Abelian subgroup C2      NOp   2
                         Standard orientation:                         
 ---------------------------------------------------------------------
 Center     Atomic      Atomic             Coordinates (Angstroms)
 Number     Number       Type             X           Y           Z
 ---------------------------------------------------------------------
      1          8           0        0.000000    0.699656    0.026733
      2          8           0        0.000000   -0.699656    0.026733
      3          1           0        0.897920    0.882443   -0.213864
      4          1           0       -0.897920   -0.882443   -0.213864
[...]
 -------------------------------------------------------------------
 Cartesian Forces:  Max     0.000065058 RMS     0.000029317

 GradGradGradGradGradGradGradGradGradGradGradGradGradGradGradGradGradGrad
 Berny optimization.
 FormGI is forming the generalized inverse of G from B-inverse, IUseBI=4.
 Internal  Forces:  Max     0.000050093 RMS     0.000031051
 Search for a local minimum.
 Step number   1 out of a maximum of  100 on scan point    73 out of    73
 All quantities printed in internal units (Hartrees-Bohrs-Radians)
 Mixed Optimization -- RFO/linear search
 Second derivative matrix not updated -- first step.
 The second derivative matrix:
                          R1        R2        R3        A1        A2
           R1           0.33853
           R2           0.00717   0.58456
           R3           0.00717   0.00178   0.58456
           A1           0.04606   0.00760   0.00760   0.22302
           A2           0.04606   0.00760   0.00760   0.06302   0.22302
           D1           0.02728  -0.00461  -0.00461   0.01458   0.01458
                          D1
           D1           0.01591
 ITU=  0
     Eigenvalues ---    0.16000   0.24192   0.38112   0.58278   0.58788
     Eigenvalues --- 1000.00000
 RFO step:  Lambda=-2.31083299D-08 EMin= 1.60000000D-01
 Linear search not attempted -- first point.
 Iteration  1 RMS(Cart)=  0.00011634 RMS(Int)=  0.00000001
 Iteration  2 RMS(Cart)=  0.00000001 RMS(Int)=  0.00000000
 Iteration  1 RMS(Cart)=  0.00000000 RMS(Int)=  0.00000000
 ClnCor:  largest displacement from symmetrization is 3.39D-14 for atom     4.
 Variable       Old X    -DE/DX   Delta X   Delta X   Delta X     New X
                                 (Linear)    (Quad)   (Total)
    R1        2.64873   0.00003   0.00000   0.00013   0.00013   2.64886
    R2        1.78999  -0.00001   0.00000  -0.00001  -0.00001   1.78998
    R3        1.78999  -0.00001   0.00000  -0.00001  -0.00001   1.78998
    A1        1.75822  -0.00005   0.00000  -0.00020  -0.00020   1.75802
    A2        1.75822  -0.00005   0.00000  -0.00020  -0.00020   1.75802
    D1        3.14159   0.00000   0.00000   0.00000   0.00000   3.14159
         Item               Value     Threshold  Converged?
 Maximum Force            0.000050     0.000450     YES
 RMS     Force            0.000034     0.000300     YES
 Maximum Displacement     0.000125     0.001800     YES
 RMS     Displacement     0.000116     0.001200     YES
 Predicted change in Energy=-1.155416D-08
 Optimization completed.
    -- Stationary point found.
                           ----------------------------
                           !   Optimized Parameters   !
                           ! (Angstroms and Degrees)  !
 --------------------------                            --------------------------
 ! Name  Definition              Value          Derivative Info.                !
 --------------------------------------------------------------------------------
 ! R1    R(1,2)                  1.4016         -DE/DX =    0.0                 !
 ! R2    R(1,3)                  0.9472         -DE/DX =    0.0                 !
 ! R3    R(2,4)                  0.9472         -DE/DX =    0.0                 !
 ! A1    A(2,1,3)              100.7383         -DE/DX =   -0.0001              !
 ! A2    A(1,2,4)              100.7383         -DE/DX =   -0.0001              !
 ! D1    D(3,1,2,4)            180.0            -DE/DX =    0.0                 !
 --------------------------------------------------------------------------------
 GradGradGradGradGradGradGradGradGradGradGradGradGradGradGradGradGradGrad

 Summary of Optimized Potential Surface Scan
                           1         2         3         4         5
     Eigenvalues --  -150.78541-150.78543-150.78548-150.78555-150.78566
           R1           1.40158   1.40170   1.40168   1.40154   1.40126
           R2           0.94738   0.94720   0.94722   0.94724   0.94727
           R3           0.94738   0.94720   0.94722   0.94724   0.94727
           A1         100.73345 100.72816 100.74600 100.78537 100.84737
           A2         100.73345 100.72816 100.74600 100.78537 100.84737
           D1         180.00000-175.00000-170.00000-165.00000-160.00000
                           6         7         8         9        10
     Eigenvalues --  -150.78579-150.78594-150.78609-150.78626-150.78641
           R1           1.40030   1.39931   1.39843   1.39759   1.39661
           R2           0.94736   0.94740   0.94748   0.94756   0.94767
           R3           0.94736   0.94740   0.94748   0.94756   0.94767
           A1         101.03316 101.12415 101.25903 101.41262 101.57926
           A2         101.03316 101.12415 101.25903 101.41262 101.57926
           D1        -155.00000-150.00000-145.00000-140.00000-135.00000
                          11        12        13        14        15
     Eigenvalues --  -150.78655-150.78666-150.78674-150.78677-150.78673
           R1           1.39559   1.39456   1.39353   1.39253   1.39160
           R2           0.94779   0.94792   0.94807   0.94822   0.94838
           R3           0.94779   0.94792   0.94807   0.94822   0.94838
           A1         101.75861 101.94875 102.14739 102.35266 102.56278
           A2         101.75861 101.94875 102.14739 102.35266 102.56278
           D1        -130.00000-125.00000-120.00000-115.00000-110.00000
                          16        17        18        19        20
     Eigenvalues --  -150.78663-150.78645-150.78619-150.78583-150.78538
           R1           1.39077   1.39005   1.38947   1.38905   1.38880
           R2           0.94854   0.94869   0.94883   0.94895   0.94904
           R3           0.94854   0.94869   0.94883   0.94895   0.94904
           A1         102.77617 102.99157 103.20803 103.42500 103.64230
           A2         102.77617 102.99157 103.20803 103.42500 103.64230
           D1        -105.00000-100.00000 -95.00000 -90.00000 -85.00000
                          21        22        23        24        25
     Eigenvalues --  -150.78484-150.78421-150.78349-150.78270-150.78186
           R1           1.38874   1.38886   1.38916   1.38963   1.39026
           R2           0.94911   0.94915   0.94915   0.94912   0.94906
           R3           0.94911   0.94915   0.94915   0.94912   0.94906
           A1         103.86012 104.07888 104.29908 104.52109 104.74488
           A2         103.86012 104.07888 104.29908 104.52109 104.74488
           D1         -80.00000 -75.00000 -70.00000 -65.00000 -60.00000
                          26        27        28        29        30
     Eigenvalues --  -150.78096-150.78004-150.77912-150.77821-150.77734
           R1           1.39102   1.39189   1.39284   1.39382   1.39481
           R2           0.94896   0.94883   0.94869   0.94852   0.94835
           R3           0.94896   0.94883   0.94869   0.94852   0.94835
           A1         104.96982 105.19451 105.41663 105.63297 105.83957
           A2         104.96982 105.19451 105.41663 105.63297 105.83957
           D1         -55.00000 -50.00000 -45.00000 -40.00000 -35.00000
                          31        32        33        34        35
     Eigenvalues --  -150.77653-150.77581-150.77518-150.77468-150.77431
           R1           1.39576   1.39664   1.39741   1.39805   1.39852
           R2           0.94819   0.94803   0.94789   0.94777   0.94769
           R3           0.94819   0.94803   0.94789   0.94777   0.94769
           A1         106.03187 106.20510 106.35452 106.47579 106.56525
           A2         106.03187 106.20510 106.35452 106.47579 106.56525
           D1         -30.00000 -25.00000 -20.00000 -15.00000 -10.00000
                          36        37        38        39        40
     Eigenvalues --  -150.77408-150.77401-150.77409-150.77431-150.77468
           R1           1.39852   1.39881   1.39891   1.39881   1.39805
           R2           0.94769   0.94763   0.94761   0.94763   0.94777
           R3           0.94769   0.94763   0.94761   0.94763   0.94777
           A1         106.56521 106.62008 106.63856 106.62012 106.47618
           A2         106.56521 106.62008 106.63856 106.62012 106.47618
           D1          -5.00000   0.00000   5.00000  10.00000  15.00000
                          41        42        43        44        45
     Eigenvalues --  -150.77518-150.77581-150.77653-150.77734-150.77821
           R1           1.39741   1.39664   1.39576   1.39481   1.39382
           R2           0.94789   0.94803   0.94819   0.94836   0.94852
           R3           0.94789   0.94803   0.94819   0.94836   0.94852
           A1         106.35466 106.20531 106.03216 105.83995 105.63345
           A2         106.35466 106.20531 106.03216 105.83995 105.63345
           D1          20.00000  25.00000  30.00000  35.00000  40.00000
                          46        47        48        49        50
     Eigenvalues --  -150.77912-150.78004-150.78096-150.78186-150.78270
           R1           1.39283   1.39189   1.39102   1.39025   1.38962
           R2           0.94869   0.94883   0.94896   0.94906   0.94912
           R3           0.94869   0.94883   0.94896   0.94906   0.94912
           A1         105.41717 105.19506 104.97032 104.74523 104.52121
           A2         105.41717 105.19506 104.97032 104.74523 104.52121
           D1          45.00000  50.00000  55.00000  60.00000  65.00000
                          51        52        53        54        55
     Eigenvalues --  -150.78349-150.78421-150.78484-150.78538-150.78583
           R1           1.38915   1.38885   1.38874   1.38880   1.38905
           R2           0.94915   0.94915   0.94911   0.94904   0.94895
           R3           0.94915   0.94915   0.94911   0.94904   0.94895
           A1         104.29890 104.07838 103.85936 103.64139 103.42407
           A2         104.29890 104.07838 103.85936 103.64139 103.42407
           D1          70.00000  75.00000  80.00000  85.00000  90.00000
                          56        57        58        59        60
     Eigenvalues --  -150.78619-150.78645-150.78663-150.78673-150.78677
           R1           1.38947   1.39005   1.39077   1.39161   1.39254
           R2           0.94883   0.94869   0.94854   0.94838   0.94822
           R3           0.94883   0.94869   0.94854   0.94838   0.94822
           A1         103.20722 102.99094 102.77576 102.56253 102.35253
           A2         103.20722 102.99094 102.77576 102.56253 102.35253
           D1          95.00000 100.00000 105.00000 110.00000 115.00000
                          61        62        63        64        65
     Eigenvalues --  -150.78674-150.78666-150.78655-150.78641-150.78626
           R1           1.39353   1.39456   1.39560   1.39661   1.39758
           R2           0.94806   0.94792   0.94779   0.94767   0.94756
           R3           0.94806   0.94792   0.94779   0.94767   0.94756
           A1         102.14732 101.94870 101.75861 101.57908 101.41212
           A2         102.14732 101.94870 101.75861 101.57908 101.41212
           D1         120.00000 125.00000 130.00000 135.00000 140.00000
                          66        67        68        69        70
     Eigenvalues --  -150.78609-150.78594-150.78579-150.78566-150.78555
           R1           1.39849   1.39930   1.40002   1.40062   1.40062
           R2           0.94747   0.94740   0.94734   0.94729   0.94729
           R3           0.94747   0.94740   0.94734   0.94729   0.94729
           A1         101.25970 101.12364 101.00558 100.90698 100.90757
           A2         101.25970 101.12364 101.00558 100.90698 100.90757
           D1         145.00000 150.00000 155.00000 160.00000 165.00000
                          71        72        73
     Eigenvalues --  -150.78548-150.78543-150.78541
           R1           1.40110   1.40144   1.40165
           R2           0.94726   0.94723   0.94722
           R3           0.94726   0.94723   0.94722
           A1         100.82902 100.77240 100.73831
           A2         100.82902 100.77240 100.73831
           D1         170.00000 175.00000 180.00000
                          Input orientation:                          
 ---------------------------------------------------------------------
 Center     Atomic      Atomic             Coordinates (Angstroms)
 Number     Number       Type             X           Y           Z
 ---------------------------------------------------------------------
      1          8           0        0.634768    0.297026    0.000000
      2          8           0       -0.634768   -0.297026    0.000000
      3          1           0        0.400198    1.214743    0.000000
      4          1           0       -0.400198   -1.214743    0.000000
 ---------------------------------------------------------------------
                    Distance matrix (angstroms):
                    1          2          3          4
     1  O    0.000000
     2  O    1.401650   0.000000
     3  H    0.947220   1.832103   0.000000
     4  H    1.832103   0.947220   2.557936   0.000000
 Stoichiometry    H2O2
 Framework group  C2H[SGH(H2O2)]
 Deg. of freedom     3
 Full point group                 C2H     NOp   4
 Largest Abelian subgroup         C2H     NOp   4
 Largest concise Abelian subgroup C2      NOp   2
                         Standard orientation:                         
 ---------------------------------------------------------------------
 Center     Atomic      Atomic             Coordinates (Angstroms)
 Number     Number       Type             X           Y           Z
 ---------------------------------------------------------------------
      1          8           0        0.000000    0.700825    0.000000
      2          8           0        0.000000   -0.700825    0.000000
      3          1           0       -0.930633    0.877314    0.000000
      4          1           0        0.930633   -0.877314    0.000000
 ---------------------------------------------------------------------
 Rotational constants (GHZ):    321.2631496     28.9848071     26.5861663

 **********************************************************************

            Population analysis using the SCF density.

 **********************************************************************

 Orbital symmetries:
       Occupied  (AG) (BU) (AG) (BU) (BU) (AG) (AU) (AG) (BG)
       Virtual   (AG) (BU) (BU) (BU) (AG) (AG) (BU) (AU) (BU) (BG)
                 (AG) (BG) (AU) (BU) (AG) (AG) (BU) (AG) (BU) (AU)
                 (AG) (BU) (BG) (AU) (BG) (AG) (AG) (BU) (BU)
 The electronic state is 1-AG.
 Alpha  occ. eigenvalues --  -20.61476 -20.61443  -1.49325  -1.20471  -0.72956
 Alpha  occ. eigenvalues --   -0.68156  -0.63036  -0.53425  -0.43980
 Alpha virt. eigenvalues --    0.19597   0.20153   0.33942   0.82257   0.84608
 Alpha virt. eigenvalues --    1.08907   1.11469   1.15143   1.24838   1.25721
 Alpha virt. eigenvalues --    1.34779   1.53750   1.56152   1.58391   1.75588
 Alpha virt. eigenvalues --    1.92548   2.10066   2.43795   2.51041   2.59189
 Alpha virt. eigenvalues --    2.79959   2.98356   3.23376   3.33650   3.43297
 Alpha virt. eigenvalues --    3.63532   3.94423   3.95467   4.30916
          Condensed to atoms (all electrons):
               1          2          3          4
     1  O    7.754312   0.101581   0.365086  -0.029159
     2  O    0.101581   7.754312  -0.029159   0.365086
     3  H    0.365086  -0.029159   0.469572   0.002681
     4  H   -0.029159   0.365086   0.002681   0.469572
 Mulliken charges:
               1
     1  O   -0.191820
     2  O   -0.191820
     3  H    0.191820
     4  H    0.191820
 Sum of Mulliken charges =   0.00000
 Mulliken charges with hydrogens summed into heavy atoms:
               1
     1  O    0.000000
     2  O    0.000000
 Electronic spatial extent (au):  <R**2>=             63.0478
 Charge=              0.0000 electrons
 Dipole moment (field-independent basis, Debye):
    X=              0.0000    Y=              0.0000    Z=              0.0000  Tot=              0.0000
 Quadrupole moment (field-independent basis, Debye-Ang):
   XX=             -7.8207   YY=            -11.1808   ZZ=            -12.3404
   XY=             -3.5917   XZ=              0.0000   YZ=              0.0000
 Traceless Quadrupole moment (field-independent basis, Debye-Ang):
   XX=              2.6266   YY=             -0.7335   ZZ=             -1.8931
   XY=             -3.5917   XZ=              0.0000   YZ=              0.0000
 Octapole moment (field-independent basis, Debye-Ang**2):
  XXX=              0.0000  YYY=              0.0000  ZZZ=              0.0000  XYY=              0.0000
  XXY=              0.0000  XXZ=              0.0000  XZZ=              0.0000  YZZ=              0.0000
  YYZ=              0.0000  XYZ=              0.0000
 Hexadecapole moment (field-independent basis, Debye-Ang**3):
 XXXX=             -7.3737 YYYY=            -40.5284 ZZZZ=             -8.3874 XXXY=             -1.5615
 XXXZ=              0.0000 YYYX=             -1.4052 YYYZ=              0.0000 ZZZX=              0.0000
 ZZZY=              0.0000 XXYY=             -6.4292 XXZZ=             -3.3218 YYZZ=             -9.3041
 XXYZ=              0.0000 YYXZ=              0.0000 ZZXY=              0.5733
 N-N= 3.792934898938D+01 E-N=-4.343806897541D+02  KE= 1.508365242769D+02
 Symmetry AG   KE= 7.277986669607D+01
 Symmetry BG   KE= 5.404981125992D+00
 Symmetry AU   KE= 4.357942676245D+00
 Symmetry BU   KE= 6.829373377864D+01
 1\1\GINC-C0700A-S1\Scan\RHF\CC-pVDZ\H2O2\LE.CHEN\07-Oct-2021\0\\# opt=
 (modredundant,maxcyc=500) hf/cc-pvdz geom=connectivity\\Title\\0,1\O,0
 .6347682832,0.2970264327,0.0000000003\O,-0.6347682832,-0.2970264327,0.
 0000000003\H,0.4001980168,1.2147428181,0.0000000003\H,-0.4001980168,-1
 .2147428181,0.0000000003\\Version=AS64L-G09RevD.01\State=1-AG\HF=-150.
 7854114,-150.7854278,-150.7854762,-150.7855548,-150.7856607,-150.78579
 02,-150.7859372,-150.786095,-150.7862559,-150.786411,-150.7865504,-150
 .7866636,-150.7867394,-150.7867668,-150.7867349,-150.7866336,-150.7864
 539,-150.7861887,-150.7858327,-150.7853834,-150.7848411,-150.784209,-1
 50.7834936,-150.7827048,-150.7818556,-150.7809619,-150.7800422,-150.77
 91171,-150.7782084,-150.7773389,-150.776531,-150.775806,-150.7751835,-
 150.7746806,-150.7743111,-150.7740848,-150.7740092,-150.7740852,-150.7
 743107,-150.7746806,-150.7751835,-150.775806,-150.776531,-150.7773389,
 -150.7782084,-150.7791171,-150.7800422,-150.7809619,-150.7818556,-150.
 7827048,-150.7834936,-150.784209,-150.7848411,-150.7853834,-150.785832
 7,-150.7861887,-150.7864539,-150.7866336,-150.7867349,-150.7867668,-15
 0.7867394,-150.7866636,-150.7865504,-150.786411,-150.7862559,-150.7860
 95,-150.7859372,-150.7857904,-150.7856612,-150.7855545,-150.785476,-15
 0.7854277,-150.7854115\RMSD=1.987e-09,2.188e-09,2.253e-09,2.454e-09,2.
 739e-09,6.883e-09,6.757e-09,8.886e-09,8.815e-09,8.936e-09,9.045e-09,8.
 939e-09,8.657e-09,8.202e-09,7.571e-09,6.769e-09,5.826e-09,4.865e-09,4.
 222e-09,4.380e-09,5.406e-09,6.760e-09,7.916e-09,8.748e-09,9.334e-09,9.
 733e-09,9.926e-09,9.856e-09,9.462e-09,8.713e-09,7.624e-09,6.268e-09,4.
 768e-09,3.293e-09,2.013e-09,8.907e-09,1.802e-09,1.670e-09,2.168e-09,2.
 438e-09,3.898e-09,5.455e-09,6.943e-09,8.218e-09,9.186e-09,9.802e-09,2.
 751e-09,2.596e-09,9.751e-09,9.240e-09,8.464e-09,7.340e-09,5.927e-09,4.
 695e-09,4.290e-09,4.805e-09,5.767e-09,6.769e-09,7.656e-09,8.391e-09,8.
 968e-09,9.384e-09,9.640e-09,9.743e-09,9.713e-09,9.579e-09,9.374e-09,9.
 122e-09,8.814e-09,2.582e-09,2.488e-09,2.270e-09,2.394e-09\PG=C02H [SGH
 (H2O2)]\\@


 Standing in the middle of the road is very dangerous;
 you get knocked down by the traffic from both sides.
                                -- Margaret Thatcher
 Job cpu time:       0 days  0 hours  1 minutes 15.8 seconds.
 File lengths (MBytes):  RWF=      5 Int=      0 D2E=      0 Chk=      3 Scr=      1
 Normal termination of Gaussian 09 at Thu Oct  7 12:47:41 2021.
