 Entering Gaussian System, Link 0=g09
 Initial command:
 /apps/gaussian/g09/amd-sse4a/l1.exe "/blue/chm6586/le.chen/hw3/q2/Gau-44990.inp" -scrdir="/blue/chm6586/le.chen/hw3/q2/"
 Entering Link 1 = /apps/gaussian/g09/amd-sse4a/l1.exe PID=     44991.
  
 Copyright (c) 1988,1990,1992,1993,1995,1998,2003,2009,2013,
            Gaussian, Inc.  All Rights Reserved.
  
 This is part of the Gaussian(R) 09 program.  It is based on
 the Gaussian(R) 03 system (copyright 2003, Gaussian, Inc.),
 the Gaussian(R) 98 system (copyright 1998, Gaussian, Inc.),
 the Gaussian(R) 94 system (copyright 1995, Gaussian, Inc.),
 the Gaussian 92(TM) system (copyright 1992, Gaussian, Inc.),
 the Gaussian 90(TM) system (copyright 1990, Gaussian, Inc.),
 the Gaussian 88(TM) system (copyright 1988, Gaussian, Inc.),
 the Gaussian 86(TM) system (copyright 1986, Carnegie Mellon
 University), and the Gaussian 82(TM) system (copyright 1983,
 Carnegie Mellon University). Gaussian is a federally registered
 trademark of Gaussian, Inc.
  
 This software contains proprietary and confidential information,
 including trade secrets, belonging to Gaussian, Inc.
  
 This software is provided under written license and may be
 used, copied, transmitted, or stored only in accord with that
 written license.
  
 The following legend is applicable only to US Government
 contracts under FAR:
  
                    RESTRICTED RIGHTS LEGEND
  
 Use, reproduction and disclosure by the US Government is
 subject to restrictions as set forth in subparagraphs (a)
 and (c) of the Commercial Computer Software - Restricted
 Rights clause in FAR 52.227-19.
  
 Gaussian, Inc.
 340 Quinnipiac St., Bldg. 40, Wallingford CT 06492
  
  
 ---------------------------------------------------------------
 Warning -- This program may not be used in any manner that
 competes with the business of Gaussian, Inc. or will provide
 assistance to any competitor of Gaussian, Inc.  The licensee
 of this program is prohibited from giving any competitor of
 Gaussian, Inc. access to this program.  By using this program,
 the user acknowledges that Gaussian, Inc. is engaged in the
 business of creating and licensing software in the field of
 computational chemistry and represents and warrants to the
 licensee that it is not a competitor of Gaussian, Inc. and that
 it will not use this program in any manner prohibited above.
 ---------------------------------------------------------------
  

 Cite this work as:
 Gaussian 09, Revision D.01,
 M. J. Frisch, G. W. Trucks, H. B. Schlegel, G. E. Scuseria, 
 M. A. Robb, J. R. Cheeseman, G. Scalmani, V. Barone, B. Mennucci, 
 G. A. Petersson, H. Nakatsuji, M. Caricato, X. Li, H. P. Hratchian, 
 A. F. Izmaylov, J. Bloino, G. Zheng, J. L. Sonnenberg, M. Hada, 
 M. Ehara, K. Toyota, R. Fukuda, J. Hasegawa, M. Ishida, T. Nakajima, 
 Y. Honda, O. Kitao, H. Nakai, T. Vreven, J. A. Montgomery, Jr., 
 J. E. Peralta, F. Ogliaro, M. Bearpark, J. J. Heyd, E. Brothers, 
 K. N. Kudin, V. N. Staroverov, T. Keith, R. Kobayashi, J. Normand, 
 K. Raghavachari, A. Rendell, J. C. Burant, S. S. Iyengar, J. Tomasi, 
 M. Cossi, N. Rega, J. M. Millam, M. Klene, J. E. Knox, J. B. Cross, 
 V. Bakken, C. Adamo, J. Jaramillo, R. Gomperts, R. E. Stratmann, 
 O. Yazyev, A. J. Austin, R. Cammi, C. Pomelli, J. W. Ochterski, 
 R. L. Martin, K. Morokuma, V. G. Zakrzewski, G. A. Voth, 
 P. Salvador, J. J. Dannenberg, S. Dapprich, A. D. Daniels, 
 O. Farkas, J. B. Foresman, J. V. Ortiz, J. Cioslowski, 
 and D. J. Fox, Gaussian, Inc., Wallingford CT, 2013.
 
 ******************************************
 Gaussian 09:  AS64L-G09RevD.01 24-Apr-2013
                 7-Oct-2021 
 ******************************************
 %chk=peroxide.chk
 --------------------------------------------
 #P hf/cc-pvdz geom=connectivity opt=z-matrix
 --------------------------------------------
 1/10=7,18=40,38=1,57=2/1,3;
 2/12=2,17=6,18=5,29=3,40=1/2;
 3/5=16,11=9,16=1,25=1,30=1,71=1/1,2,3;
 4//1;
 5/5=2,38=5/2;
 6/7=2,8=2,9=2,10=2,28=1/1;
 7/29=1/1,2,3,16;
 1/10=7,18=40/3(2);
 2/29=3/2;
 99//99;
 2/29=3/2;
 3/5=16,11=9,16=1,25=1,30=1,71=1/1,2,3;
 4/5=5,16=3,69=1/1;
 5/5=2,38=5/2;
 7//1,2,3,16;
 1/18=40/3(-5);
 2/29=3/2;
 6/7=2,8=2,9=2,10=2,19=2,28=1/1;
 99/9=1/99;
 Leave Link    1 at Thu Oct  7 12:46:18 2021, MaxMem=           0 cpu:         0.0
 (Enter /apps/gaussian/g09/amd-sse4a/l101.exe)
 -------------------
 Title Card Required
 -------------------
 Symbolic Z-matrix:
 Charge =  0 Multiplicity = 1
 O
 H                    1    B1
 O                    1    B2       2    A1
 H                    3    B3       1    A2       2    D1       0
       Variables:
  B1                    0.96                     
  B2                    1.32                     
  B3                    0.96                     
  A1                  109.5                      
  A2                  109.5                      
  D1                   90.     10         5.     
 
 NAtoms=      4 NQM=        4 NQMF=       0 NMMI=      0 NMMIF=      0
                NMic=       0 NMicF=      0.
                    Isotopes and Nuclear Properties:
 (Nuclear quadrupole moments (NQMom) in fm**2, nuclear magnetic moments (NMagM)
  in nuclear magnetons)

  Atom         1           2           3           4
 IAtWgt=          16           1          16           1
 AtmWgt=  15.9949146   1.0078250  15.9949146   1.0078250
 NucSpn=           0           1           0           1
 AtZEff=   0.0000000   0.0000000   0.0000000   0.0000000
 NQMom=    0.0000000   0.0000000   0.0000000   0.0000000
 NMagM=    0.0000000   2.7928460   0.0000000   2.7928460
 AtZNuc=   8.0000000   1.0000000   8.0000000   1.0000000
 Leave Link  101 at Thu Oct  7 12:46:18 2021, MaxMem=    33554432 cpu:         0.0
 (Enter /apps/gaussian/g09/amd-sse4a/l103.exe)

 GradGradGradGradGradGradGradGradGradGradGradGradGradGradGradGradGradGrad
 Berny optimization.
 Initialization pass.
                       ----------------------------
                       !    Initial Parameters    !
                       ! (Angstroms and Degrees)  !
 ----------------------                            ----------------------
 !      Name          Value   Derivative information (Atomic Units)     !
 ------------------------------------------------------------------------
 !       B1          0.96     estimate D2E/DX2                          !
 !       B2          1.32     estimate D2E/DX2                          !
 !       B3          0.96     estimate D2E/DX2                          !
 !       A1        109.5      estimate D2E/DX2                          !
 !       A2        109.5      estimate D2E/DX2                          !
 !       D1         90.0      D2E/DX2 =    0.0873                       !
 ------------------------------------------------------------------------
 Trust Radius=3.00D-01 FncErr=1.00D-07 GrdErr=1.00D-07
 Number of steps in this run=     20 maximum allowed number of steps=    100.
 GradGradGradGradGradGradGradGradGradGradGradGradGradGradGradGradGradGrad

 Leave Link  103 at Thu Oct  7 12:46:18 2021, MaxMem=    33554432 cpu:         0.0
 (Enter /apps/gaussian/g09/amd-sse4a/l202.exe)
 ---------------------------------------------------------------------------------------------------
                            Z-MATRIX (ANGSTROMS AND DEGREES)
   CD    Cent   Atom    N1       Length/X        N2       Alpha/Y        N3        Beta/Z          J
 ---------------------------------------------------------------------------------------------------
      1      1  O 
      2      2  H        1   0.960000(     1)
      3      3  O        1   1.320000(     2)      2  109.500(     4)
      4      4  H        3   0.960000(     3)      1  109.500(     5)      2   90.000(     6)      0
 ---------------------------------------------------------------------------------------------------
                         Z-Matrix orientation:                         
 ---------------------------------------------------------------------
 Center     Atomic      Atomic             Coordinates (Angstroms)
 Number     Number       Type             X           Y           Z
 ---------------------------------------------------------------------
      1          8           0        0.000000    0.000000    0.000000
      2          1           0        0.000000    0.000000    0.960000
      3          8           0        1.244287    0.000000   -0.440625
      4          1           0        1.546361   -0.904936   -0.547595
 ---------------------------------------------------------------------
                    Distance matrix (angstroms):
                    1          2          3          4
     1  O    0.000000
     2  H    0.960000   0.000000
     3  O    1.320000   1.873499   0.000000
     4  H    1.873499   2.341577   0.960000   0.000000
 Stoichiometry    H2O2
 Framework group  C2[X(H2O2)]
 Deg. of freedom     4
 Full point group                 C2      NOp   2
 Largest Abelian subgroup         C2      NOp   2
 Largest concise Abelian subgroup C2      NOp   2
                         Standard orientation:                         
 ---------------------------------------------------------------------
 Center     Atomic      Atomic             Coordinates (Angstroms)
 Number     Number       Type             X           Y           Z
 ---------------------------------------------------------------------
      1          8           0        0.000000    0.660000   -0.071098
      2          1           0        0.639886    0.980455    0.568788
      3          8           0        0.000000   -0.660000   -0.071098
      4          1           0       -0.639886   -0.980455    0.568788
 ---------------------------------------------------------------------
 Rotational constants (GHZ):    337.7802211     30.2663605     30.1640838
 Leave Link  202 at Thu Oct  7 12:46:18 2021, MaxMem=    33554432 cpu:         0.0
 (Enter /apps/gaussian/g09/amd-sse4a/l301.exe)
 Standard basis: CC-pVDZ (5D, 7F)
 Ernie: Thresh=  0.10000D-02 Tol=  0.10000D-05 Strict=F.
 Ernie:  4 primitive shells out of 54 were deleted.
 There are    20 symmetry adapted cartesian basis functions of A   symmetry.
 There are    20 symmetry adapted cartesian basis functions of B   symmetry.
 There are    19 symmetry adapted basis functions of A   symmetry.
 There are    19 symmetry adapted basis functions of B   symmetry.
    38 basis functions,    80 primitive gaussians,    40 cartesian basis functions
     9 alpha electrons        9 beta electrons
       nuclear repulsion energy        39.2219510357 Hartrees.
 IExCor=    0 DFT=F Ex=HF Corr=None ExCW=0 ScaHFX=  1.000000
 ScaDFX=  1.000000  1.000000  1.000000  1.000000 ScalE2=  1.000000  1.000000
 IRadAn=      0 IRanWt=     -1 IRanGd=            0 ICorTp=0 IEmpDi=  4
 NAtoms=    4 NActive=    4 NUniq=    2 SFac= 4.00D+00 NAtFMM=   60 NAOKFM=F Big=F
 Integral buffers will be    131072 words long.
 Raffenetti 1 integral format.
 Two-electron integral symmetry is turned on.
 Leave Link  301 at Thu Oct  7 12:46:18 2021, MaxMem=    33554432 cpu:         0.0
 (Enter /apps/gaussian/g09/amd-sse4a/l302.exe)
 NPDir=0 NMtPBC=     1 NCelOv=     1 NCel=       1 NClECP=     1 NCelD=      1
         NCelK=      1 NCelE2=     1 NClLst=     1 CellRange=     0.0.
 One-electron integrals computed using PRISM.
 One-electron integral symmetry used in STVInt
 NBasis=    38 RedAO= T EigKep=  1.37D-02  NBF=    19    19
 NBsUse=    38 1.00D-06 EigRej= -1.00D+00 NBFU=    19    19
 Leave Link  302 at Thu Oct  7 12:46:18 2021, MaxMem=    33554432 cpu:         0.1
 (Enter /apps/gaussian/g09/amd-sse4a/l303.exe)
 DipDrv:  MaxL=1.
 Leave Link  303 at Thu Oct  7 12:46:18 2021, MaxMem=    33554432 cpu:         0.0
 (Enter /apps/gaussian/g09/amd-sse4a/l401.exe)
 ExpMin= 1.22D-01 ExpMax= 1.17D+04 ExpMxC= 4.01D+02 IAcc=1 IRadAn=         1 AccDes= 0.00D+00
 Harris functional with IExCor=  205 and IRadAn=       1 diagonalized for initial guess.
 HarFok:  IExCor=  205 AccDes= 0.00D+00 IRadAn=         1 IDoV= 1 UseB2=F ITyADJ=14
 ICtDFT=  3500011 ScaDFX=  1.000000  1.000000  1.000000  1.000000
 FoFCou: FMM=F IPFlag=           0 FMFlag=      100000 FMFlg1=           0
         NFxFlg=           0 DoJE=T BraDBF=F KetDBF=T FulRan=T
         wScrn=  0.000000 ICntrl=     500 IOpCl=  0 I1Cent=   200000004 NGrid=           0
         NMat0=    1 NMatS0=      1 NMatT0=    0 NMatD0=    1 NMtDS0=    0 NMtDT0=    0
 Petite list used in FoFCou.
 Harris En= -150.869425935985    
 JPrj=0 DoOrth=F DoCkMO=F.
 Initial guess orbital symmetries:
       Occupied  (B) (A) (A) (B) (A) (B) (A) (B) (A)
       Virtual   (B) (A) (B) (A) (B) (B) (A) (A) (B) (A) (B) (A)
                 (B) (A) (B) (A) (B) (B) (A) (B) (A) (A) (A) (B)
                 (B) (A) (B) (A) (B)
 The electronic state of the initial guess is 1-A.
 Leave Link  401 at Thu Oct  7 12:46:18 2021, MaxMem=    33554432 cpu:         0.1
 (Enter /apps/gaussian/g09/amd-sse4a/l502.exe)
 Closed shell SCF:
 Using DIIS extrapolation, IDIIS=  1040.
 Integral symmetry usage will be decided dynamically.
 Keep R1 ints in memory in symmetry-blocked form, NReq=1142981.
 IVT=       23954 IEndB=       23954 NGot=    33554432 MDV=    33391000
 LenX=    33391000 LenY=    33388959
 Requested convergence on RMS density matrix=1.00D-08 within 128 cycles.
 Requested convergence on MAX density matrix=1.00D-06.
 Requested convergence on             energy=1.00D-06.
 No special actions if energy rises.
 FoFCou: FMM=F IPFlag=           0 FMFlag=           0 FMFlg1=           0
         NFxFlg=           0 DoJE=F BraDBF=F KetDBF=F FulRan=T
         wScrn=  0.000000 ICntrl=     600 IOpCl=  0 I1Cent=           0 NGrid=           0
         NMat0=    1 NMatS0=    741 NMatT0=    0 NMatD0=    1 NMtDS0=    0 NMtDT0=    0
 Petite list used in FoFCou.

 Cycle   1  Pass 1  IDiag  1:
 E= -150.726398220510    
 DIIS: error= 3.28D-02 at cycle   1 NSaved=   1.
 NSaved= 1 IEnMin= 1 EnMin= -150.726398220510     IErMin= 1 ErrMin= 3.28D-02
 ErrMax= 3.28D-02  0.00D+00 EMaxC= 1.00D-01 BMatC= 9.85D-02 BMatP= 9.85D-02
 IDIUse=3 WtCom= 6.72D-01 WtEn= 3.28D-01
 Coeff-Com:  0.100D+01
 Coeff-En:   0.100D+01
 Coeff:      0.100D+01
 Gap=     0.596 Goal=   None    Shift=    0.000
 GapD=    0.596 DampG=2.000 DampE=0.500 DampFc=1.0000 IDamp=-1.
 RMSDP=5.87D-03 MaxDP=6.37D-02              OVMax= 6.80D-02

 Cycle   2  Pass 1  IDiag  1:
 E= -150.771836802043     Delta-E=       -0.045438581533 Rises=F Damp=F
 DIIS: error= 1.21D-02 at cycle   2 NSaved=   2.
 NSaved= 2 IEnMin= 2 EnMin= -150.771836802043     IErMin= 2 ErrMin= 1.21D-02
 ErrMax= 1.21D-02  0.00D+00 EMaxC= 1.00D-01 BMatC= 1.26D-02 BMatP= 9.85D-02
 IDIUse=3 WtCom= 8.79D-01 WtEn= 1.21D-01
 Coeff-Com:  0.205D+00 0.795D+00
 Coeff-En:   0.000D+00 0.100D+01
 Coeff:      0.181D+00 0.819D+00
 Gap=     0.663 Goal=   None    Shift=    0.000
 RMSDP=2.16D-03 MaxDP=2.21D-02 DE=-4.54D-02 OVMax= 2.19D-02

 Cycle   3  Pass 1  IDiag  1:
 E= -150.779852397087     Delta-E=       -0.008015595044 Rises=F Damp=F
 DIIS: error= 3.27D-03 at cycle   3 NSaved=   3.
 NSaved= 3 IEnMin= 3 EnMin= -150.779852397087     IErMin= 3 ErrMin= 3.27D-03
 ErrMax= 3.27D-03  0.00D+00 EMaxC= 1.00D-01 BMatC= 6.59D-04 BMatP= 1.26D-02
 IDIUse=3 WtCom= 9.67D-01 WtEn= 3.27D-02
 Coeff-Com: -0.155D-01 0.152D+00 0.863D+00
 Coeff-En:   0.000D+00 0.000D+00 0.100D+01
 Coeff:     -0.150D-01 0.148D+00 0.867D+00
 Gap=     0.650 Goal=   None    Shift=    0.000
 RMSDP=4.33D-04 MaxDP=4.61D-03 DE=-8.02D-03 OVMax= 6.23D-03

 Cycle   4  Pass 1  IDiag  1:
 E= -150.780365926513     Delta-E=       -0.000513529426 Rises=F Damp=F
 DIIS: error= 3.52D-04 at cycle   4 NSaved=   4.
 NSaved= 4 IEnMin= 4 EnMin= -150.780365926513     IErMin= 4 ErrMin= 3.52D-04
 ErrMax= 3.52D-04  0.00D+00 EMaxC= 1.00D-01 BMatC= 1.03D-05 BMatP= 6.59D-04
 IDIUse=3 WtCom= 9.96D-01 WtEn= 3.52D-03
 Coeff-Com: -0.251D-02-0.303D-01-0.492D-01 0.108D+01
 Coeff-En:   0.000D+00 0.000D+00 0.000D+00 0.100D+01
 Coeff:     -0.250D-02-0.301D-01-0.490D-01 0.108D+01
 Gap=     0.652 Goal=   None    Shift=    0.000
 RMSDP=9.18D-05 MaxDP=6.19D-04 DE=-5.14D-04 OVMax= 1.22D-03

 Cycle   5  Pass 1  IDiag  1:
 E= -150.780381067986     Delta-E=       -0.000015141473 Rises=F Damp=F
 DIIS: error= 1.25D-04 at cycle   5 NSaved=   5.
 NSaved= 5 IEnMin= 5 EnMin= -150.780381067986     IErMin= 5 ErrMin= 1.25D-04
 ErrMax= 1.25D-04  0.00D+00 EMaxC= 1.00D-01 BMatC= 6.80D-07 BMatP= 1.03D-05
 IDIUse=3 WtCom= 9.99D-01 WtEn= 1.25D-03
 Coeff-Com:  0.132D-02-0.345D-02-0.361D-01-0.208D+00 0.125D+01
 Coeff-En:   0.000D+00 0.000D+00 0.000D+00 0.000D+00 0.100D+01
 Coeff:      0.132D-02-0.345D-02-0.361D-01-0.207D+00 0.125D+01
 Gap=     0.652 Goal=   None    Shift=    0.000
 RMSDP=4.43D-05 MaxDP=2.59D-04 DE=-1.51D-05 OVMax= 7.04D-04

 Cycle   6  Pass 1  IDiag  1:
 E= -150.780382841645     Delta-E=       -0.000001773659 Rises=F Damp=F
 DIIS: error= 3.78D-05 at cycle   6 NSaved=   6.
 NSaved= 6 IEnMin= 6 EnMin= -150.780382841645     IErMin= 6 ErrMin= 3.78D-05
 ErrMax= 3.78D-05  0.00D+00 EMaxC= 1.00D-01 BMatC= 4.09D-08 BMatP= 6.80D-07
 IDIUse=1 WtCom= 1.00D+00 WtEn= 0.00D+00
 Coeff-Com: -0.432D-03 0.219D-02 0.172D-01 0.504D-01-0.553D+00 0.148D+01
 Coeff:     -0.432D-03 0.219D-02 0.172D-01 0.504D-01-0.553D+00 0.148D+01
 Gap=     0.652 Goal=   None    Shift=    0.000
 RMSDP=1.67D-05 MaxDP=8.85D-05 DE=-1.77D-06 OVMax= 3.00D-04

 Cycle   7  Pass 1  IDiag  1:
 E= -150.780382994412     Delta-E=       -0.000000152766 Rises=F Damp=F
 DIIS: error= 8.52D-06 at cycle   7 NSaved=   7.
 NSaved= 7 IEnMin= 7 EnMin= -150.780382994412     IErMin= 7 ErrMin= 8.52D-06
 ErrMax= 8.52D-06  0.00D+00 EMaxC= 1.00D-01 BMatC= 3.07D-09 BMatP= 4.09D-08
 IDIUse=1 WtCom= 1.00D+00 WtEn= 0.00D+00
 Coeff-Com:  0.199D-03-0.114D-02-0.903D-02-0.243D-01 0.303D+00-0.983D+00
 Coeff-Com:  0.171D+01
 Coeff:      0.199D-03-0.114D-02-0.903D-02-0.243D-01 0.303D+00-0.983D+00
 Coeff:      0.171D+01
 Gap=     0.652 Goal=   None    Shift=    0.000
 RMSDP=4.72D-06 MaxDP=3.39D-05 DE=-1.53D-07 OVMax= 9.99D-05

 Cycle   8  Pass 1  IDiag  1:
 E= -150.780383006433     Delta-E=       -0.000000012021 Rises=F Damp=F
 DIIS: error= 1.45D-06 at cycle   8 NSaved=   8.
 NSaved= 8 IEnMin= 8 EnMin= -150.780383006433     IErMin= 8 ErrMin= 1.45D-06
 ErrMax= 1.45D-06  0.00D+00 EMaxC= 1.00D-01 BMatC= 9.69D-11 BMatP= 3.07D-09
 IDIUse=1 WtCom= 1.00D+00 WtEn= 0.00D+00
 Coeff-Com: -0.371D-04 0.224D-03 0.174D-02 0.510D-02-0.619D-01 0.214D+00
 Coeff-Com: -0.504D+00 0.134D+01
 Coeff:     -0.371D-04 0.224D-03 0.174D-02 0.510D-02-0.619D-01 0.214D+00
 Coeff:     -0.504D+00 0.134D+01
 Gap=     0.652 Goal=   None    Shift=    0.000
 RMSDP=7.28D-07 MaxDP=4.96D-06 DE=-1.20D-08 OVMax= 1.53D-05

 Cycle   9  Pass 1  IDiag  1:
 E= -150.780383006760     Delta-E=       -0.000000000327 Rises=F Damp=F
 DIIS: error= 2.94D-07 at cycle   9 NSaved=   9.
 NSaved= 9 IEnMin= 9 EnMin= -150.780383006760     IErMin= 9 ErrMin= 2.94D-07
 ErrMax= 2.94D-07  0.00D+00 EMaxC= 1.00D-01 BMatC= 5.36D-12 BMatP= 9.69D-11
 IDIUse=1 WtCom= 1.00D+00 WtEn= 0.00D+00
 Coeff-Com: -0.170D-05 0.275D-05 0.432D-04 0.399D-03-0.228D-02 0.149D-02
 Coeff-Com:  0.420D-01-0.407D+00 0.137D+01
 Coeff:     -0.170D-05 0.275D-05 0.432D-04 0.399D-03-0.228D-02 0.149D-02
 Coeff:      0.420D-01-0.407D+00 0.137D+01
 Gap=     0.652 Goal=   None    Shift=    0.000
 RMSDP=1.63D-07 MaxDP=8.10D-07 DE=-3.27D-10 OVMax= 2.70D-06

 Cycle  10  Pass 1  IDiag  1:
 E= -150.780383006776     Delta-E=       -0.000000000016 Rises=F Damp=F
 DIIS: error= 6.49D-08 at cycle  10 NSaved=  10.
 NSaved=10 IEnMin=10 EnMin= -150.780383006776     IErMin=10 ErrMin= 6.49D-08
 ErrMax= 6.49D-08  0.00D+00 EMaxC= 1.00D-01 BMatC= 1.02D-13 BMatP= 5.36D-12
 IDIUse=1 WtCom= 1.00D+00 WtEn= 0.00D+00
 Coeff-Com:  0.159D-05-0.802D-05-0.665D-04-0.220D-03 0.235D-02-0.657D-02
 Coeff-Com:  0.277D-02 0.763D-01-0.379D+00 0.130D+01
 Coeff:      0.159D-05-0.802D-05-0.665D-04-0.220D-03 0.235D-02-0.657D-02
 Coeff:      0.277D-02 0.763D-01-0.379D+00 0.130D+01
 Gap=     0.652 Goal=   None    Shift=    0.000
 RMSDP=1.77D-08 MaxDP=1.00D-07 DE=-1.56D-11 OVMax= 2.90D-07

 Cycle  11  Pass 1  IDiag  1:
 E= -150.780383006776     Delta-E=        0.000000000000 Rises=F Damp=F
 DIIS: error= 9.67D-09 at cycle  11 NSaved=  11.
 NSaved=11 IEnMin=10 EnMin= -150.780383006776     IErMin=11 ErrMin= 9.67D-09
 ErrMax= 9.67D-09  0.00D+00 EMaxC= 1.00D-01 BMatC= 1.98D-15 BMatP= 1.02D-13
 IDIUse=1 WtCom= 1.00D+00 WtEn= 0.00D+00
 Coeff-Com: -0.257D-06 0.150D-05 0.116D-04 0.325D-04-0.396D-03 0.119D-02
 Coeff-Com: -0.149D-02-0.504D-02 0.378D-01-0.250D+00 0.122D+01
 Coeff:     -0.257D-06 0.150D-05 0.116D-04 0.325D-04-0.396D-03 0.119D-02
 Coeff:     -0.149D-02-0.504D-02 0.378D-01-0.250D+00 0.122D+01
 Gap=     0.652 Goal=   None    Shift=    0.000
 RMSDP=2.56D-09 MaxDP=1.36D-08 DE= 8.53D-14 OVMax= 4.51D-08

 SCF Done:  E(RHF) =  -150.780383007     A.U. after   11 cycles
            NFock= 11  Conv=0.26D-08     -V/T= 1.9989
 KE= 1.509539757390D+02 PE=-4.370179976601D+02 EE= 9.606168787870D+01
 Leave Link  502 at Thu Oct  7 12:46:19 2021, MaxMem=    33554432 cpu:         0.1
 (Enter /apps/gaussian/g09/amd-sse4a/l601.exe)
 Copying SCF densities to generalized density rwf, IOpCl= 0 IROHF=0.

 **********************************************************************

            Population analysis using the SCF density.

 **********************************************************************

 Orbital symmetries:
       Occupied  (A) (B) (A) (B) (A) (B) (A) (B) (A)
       Virtual   (A) (B) (B) (A) (B) (B) (A) (A) (B) (B) (A) (B)
                 (A) (A) (B) (A) (B) (B) (A) (B) (A) (A) (A) (B)
                 (B) (A) (B) (A) (B)
 The electronic state is 1-A.
 Alpha  occ. eigenvalues --  -20.61037 -20.60994  -1.52980  -1.18634  -0.76844
 Alpha  occ. eigenvalues --   -0.69816  -0.62978  -0.47192  -0.46558
 Alpha virt. eigenvalues --    0.18675   0.20044   0.41727   0.82074   0.83084
 Alpha virt. eigenvalues --    1.13502   1.15450   1.16576   1.21583   1.29034
 Alpha virt. eigenvalues --    1.29269   1.50238   1.50625   1.65301   1.68318
 Alpha virt. eigenvalues --    1.93951   2.03512   2.44747   2.45942   2.74708
 Alpha virt. eigenvalues --    2.76198   2.96610   3.16455   3.34413   3.61786
 Alpha virt. eigenvalues --    3.63806   3.95338   4.01588   4.27404
          Condensed to atoms (all electrons):
               1          2          3          4
     1  O    7.779931   0.354735   0.087290  -0.038509
     2  H    0.354735   0.501192  -0.038509  -0.000866
     3  O    0.087290  -0.038509   7.779931   0.354735
     4  H   -0.038509  -0.000866   0.354735   0.501192
 Mulliken charges:
               1
     1  O   -0.183447
     2  H    0.183447
     3  O   -0.183447
     4  H    0.183447
 Sum of Mulliken charges =   0.00000
 Mulliken charges with hydrogens summed into heavy atoms:
               1
     1  O    0.000000
     3  O    0.000000
 Electronic spatial extent (au):  <R**2>=             60.5002
 Charge=              0.0000 electrons
 Dipole moment (field-independent basis, Debye):
    X=              0.0000    Y=              0.0000    Z=              2.4326  Tot=              2.4326
 Quadrupole moment (field-independent basis, Debye-Ang):
   XX=            -10.2078   YY=            -10.4349   ZZ=            -10.5915
   XY=              2.7432   XZ=              0.0000   YZ=              0.0000
 Traceless Quadrupole moment (field-independent basis, Debye-Ang):
   XX=              0.2036   YY=             -0.0235   ZZ=             -0.1801
   XY=              2.7432   XZ=              0.0000   YZ=              0.0000
 Octapole moment (field-independent basis, Debye-Ang**2):
  XXX=              0.0000  YYY=              0.0000  ZZZ=              1.7103  XYY=              0.0000
  XXY=              0.0000  XXZ=              1.3005  XZZ=              0.0000  YZZ=              0.0000
  YYZ=              2.8987  XYZ=              1.7180
 Hexadecapole moment (field-independent basis, Debye-Ang**3):
 XXXX=             -9.0666 YYYY=            -36.7456 ZZZZ=             -9.3169 XXXY=             -0.2244
 XXXZ=              0.0000 YYYX=              1.5480 YYYZ=              0.0000 ZZZX=              0.0000
 ZZZY=              0.0000 XXYY=             -7.2098 XXZZ=             -2.5768 YYZZ=             -7.6266
 XXYZ=              0.0000 YYXZ=              0.0000 ZZXY=              0.4242
 N-N= 3.922195103566D+01 E-N=-4.370179976815D+02  KE= 1.509539757390D+02
 Symmetry A    KE= 7.748540866859D+01
 Symmetry B    KE= 7.346856707038D+01
 No NMR shielding tensors so no spin-rotation constants.
 Leave Link  601 at Thu Oct  7 12:46:19 2021, MaxMem=    33554432 cpu:         0.1
 (Enter /apps/gaussian/g09/amd-sse4a/l701.exe)
 Compute integral first derivatives.
 ... and contract with generalized density number  0.
 Leave Link  701 at Thu Oct  7 12:46:19 2021, MaxMem=    33554432 cpu:         0.1
 (Enter /apps/gaussian/g09/amd-sse4a/l702.exe)
 L702 exits ... SP integral derivatives will be done elsewhere.
 Leave Link  702 at Thu Oct  7 12:46:19 2021, MaxMem=    33554432 cpu:         0.0
 (Enter /apps/gaussian/g09/amd-sse4a/l703.exe)
 Compute integral first derivatives, UseDBF=F ICtDFT=           0.
 Integral derivatives from FoFJK, PRISM(SPDF).
 Calling FoFJK, ICntrl=      2127 FMM=F ISym2X=1 I1Cent= 0 IOpClX= 0 NMat=1 NMatS=1 NMatT=0.
 FoFJK:  IHMeth= 1 ICntrl=    2127 DoSepK=F KAlg= 0 I1Cent=   0 FoldK=F
 IRaf=         0 NMat=   1 IRICut=       1 DoRegI=T DoRafI=F ISym2E= 1.
 FoFCou: FMM=F IPFlag=           0 FMFlag=      100000 FMFlg1=         800
         NFxFlg=           0 DoJE=F BraDBF=F KetDBF=F FulRan=T
         wScrn=  0.000000 ICntrl=    2127 IOpCl=  0 I1Cent=           0 NGrid=           0
         NMat0=    1 NMatS0=      1 NMatT0=    0 NMatD0=    1 NMtDS0=    0 NMtDT0=    0
 Petite list used in FoFCou.
 Leave Link  703 at Thu Oct  7 12:46:19 2021, MaxMem=    33554432 cpu:         0.1
 (Enter /apps/gaussian/g09/amd-sse4a/l716.exe)
 Dipole        = 0.00000000D+00 2.44249065D-15 9.57064067D-01
 ***** Axes restored to original set *****
 -------------------------------------------------------------------
 Center     Atomic                   Forces (Hartrees/Bohr)
 Number     Number              X              Y              Z
 -------------------------------------------------------------------
      1        8          -0.062489722   -0.009700151    0.021092208
      2        1           0.011005573    0.001364774   -0.011703289
      3        8           0.065401534    0.000977107   -0.012869505
      4        1          -0.013917385    0.007358270    0.003480586
 -------------------------------------------------------------------
 Cartesian Forces:  Max     0.065401534 RMS     0.027999678
 -----------------------------------------------------------------------------------------------
                       Internal Coordinate Forces (Hartree/Bohr or radian)
  Cent   Atom   N1       Length/X         N2         Alpha/Y        N3         Beta/Z          J
 -----------------------------------------------------------------------------------------------
      1  O 
      2  H        1  -0.011703(     1)
      3  O        1   0.051665(     2)      2  -0.019966(     4)
      4  H        3  -0.011703(     3)      1  -0.019966(     5)      2   0.002334(     6)     0
 -----------------------------------------------------------------------------------------------
 Internal  Forces:  Max     0.051665180 RMS     0.024986408
 Force constants in Cartesian coordinates: 
                1             2             3             4             5 
      1  0.625445D+00
      2  0.810357D-03  0.381416D-01
      3 -0.153304D+00  0.228838D-02  0.647013D+00
      4 -0.604185D-01  0.000000D+00 -0.333291D-01  0.486161D-01
      5 -0.652058D-03 -0.999973D-02 -0.184135D-02  0.000000D+00  0.804634D-02
      6  0.000000D+00  0.000000D+00 -0.554734D+00  0.000000D+00  0.000000D+00
      7 -0.565244D+00 -0.355657D-01  0.186018D+00  0.118025D-01  0.333798D-02
      8 -0.158299D-03 -0.399444D-01 -0.447023D-03  0.000000D+00  0.195340D-02
      9  0.152689D+00 -0.589057D-03 -0.940144D-01  0.333291D-01  0.942616D-02
     10  0.217661D-03  0.347554D-01  0.614657D-03  0.000000D+00 -0.268592D-02
     11  0.000000D+00  0.118025D-01  0.000000D+00  0.000000D+00  0.000000D+00
     12  0.614657D-03 -0.169932D-02  0.173574D-02  0.000000D+00 -0.758481D-02
                6             7             8             9            10 
      6  0.554734D+00
      7  0.000000D+00  0.647866D+00
      8  0.000000D+00 -0.117893D+00  0.548132D+00
      9  0.000000D+00 -0.215915D+00  0.443234D-01  0.114601D+00
     10  0.000000D+00 -0.944244D-01  0.118051D+00  0.298964D-01  0.942068D-01
     11  0.000000D+00  0.150121D+00 -0.510141D+00 -0.531605D-01 -0.150121D+00
     12  0.000000D+00  0.298964D-01 -0.438763D-01 -0.205866D-01 -0.305110D-01
               11            12 
     11  0.498339D+00
     12  0.531605D-01  0.188509D-01
 Force constants in internal coordinates: 
                1             2             3             4             5 
      1  0.554734D+00
      2  0.000000D+00  0.619314D+00
      3  0.000000D+00  0.000000D+00  0.554734D+00
      4  0.000000D+00  0.000000D+00  0.000000D+00  0.160000D+00
      5  0.000000D+00  0.000000D+00  0.000000D+00  0.000000D+00  0.160000D+00
      6  0.000000D+00  0.000000D+00  0.000000D+00  0.000000D+00  0.000000D+00
                6 
      6  0.235305D-01
 Leave Link  716 at Thu Oct  7 12:46:19 2021, MaxMem=    33554432 cpu:         0.0
 (Enter /apps/gaussian/g09/amd-sse4a/l103.exe)

 GradGradGradGradGradGradGradGradGradGradGradGradGradGradGradGradGradGrad
 Berny optimization.
 Search for a local minimum.
 Step number   1 out of a maximum of   20
 All quantities printed in internal units (Hartrees-Bohrs-Radians)
 Second derivative matrix not updated -- first step.
 The second derivative matrix:
                          B1        B2        B3        A1        A2
           B1           0.55473
           B2           0.00000   0.61931
           B3           0.00000   0.00000   0.55473
           A1           0.00000   0.00000   0.00000   0.16000
           A2           0.00000   0.00000   0.00000   0.00000   0.16000
           D1           0.00000   0.00000   0.00000   0.00000   0.00000
                          D1
           D1           0.02353
 ITU=  0
     Eigenvalues ---    0.02353   0.16000   0.16000   0.55473   0.55473
     Eigenvalues ---    0.61931
 RFO step:  Lambda=-9.59508449D-03 EMin= 2.35305152D-02
 Linear search not attempted -- first point.
 Variable       Old X    -DE/DX   Delta X   Delta X   Delta X     New X
                                 (Linear)    (Quad)   (Total)
    B1        1.81414  -0.01170   0.00000  -0.02074  -0.02074   1.79340
    B2        2.49444   0.05167   0.00000   0.08215   0.08215   2.57659
    B3        1.81414  -0.01170   0.00000  -0.02074  -0.02074   1.79340
    A1        1.91114  -0.01997   0.00000  -0.11773  -0.11773   1.79341
    A2        1.91114  -0.01997   0.00000  -0.11773  -0.11773   1.79341
    D1        1.57080   0.00233   0.00000   0.07046   0.07046   1.64125
         Item               Value     Threshold  Converged?
 Maximum Force            0.051665     0.000450     NO 
 RMS     Force            0.024986     0.000300     NO 
 Maximum Displacement     0.117725     0.001800     NO 
 RMS     Displacement     0.081946     0.001200     NO 
 Predicted change in Energy=-4.990841D-03
 Lowest energy point so far.  Saving SCF results.
 GradGradGradGradGradGradGradGradGradGradGradGradGradGradGradGradGradGrad

 Leave Link  103 at Thu Oct  7 12:46:19 2021, MaxMem=    33554432 cpu:         0.0
 (Enter /apps/gaussian/g09/amd-sse4a/l202.exe)
 ---------------------------------------------------------------------------------------------------
                            Z-MATRIX (ANGSTROMS AND DEGREES)
   CD    Cent   Atom    N1       Length/X        N2       Alpha/Y        N3        Beta/Z          J
 ---------------------------------------------------------------------------------------------------
      1      1  O 
      2      2  H        1   0.949026(     1)
      3      3  O        1   1.363472(     2)      2  102.755(     4)
      4      4  H        3   0.949026(     3)      1  102.755(     5)      2   94.037(     6)      0
 ---------------------------------------------------------------------------------------------------
                         Z-Matrix orientation:                         
 ---------------------------------------------------------------------
 Center     Atomic      Atomic             Coordinates (Angstroms)
 Number     Number       Type             X           Y           Z
 ---------------------------------------------------------------------
      1          8           0        0.000000    0.000000    0.000000
      2          1           0        0.000000    0.000000    0.949026
      3          8           0        1.329827    0.000000   -0.301027
      4          1           0        1.519796   -0.923311   -0.410838
 ---------------------------------------------------------------------
                    Distance matrix (angstroms):
                    1          2          3          4
     1  O    0.000000
     2  H    0.949026   0.000000
     3  O    1.363472   1.825122   0.000000
     4  H    1.825122   2.238641   0.949026   0.000000
 Stoichiometry    H2O2
 Framework group  C1[X(H2O2)]
 Deg. of freedom     6
 Full point group                 C1      NOp   1
 Omega: Change in point group or standard orientation.

 Old FWG=C02  [X(H2O2)]
 New FWG=C01  [X(H2O2)]
 RotChk:  IX=0 Diff= 1.94D+00
 Largest Abelian subgroup         C1      NOp   1
 Largest concise Abelian subgroup C1      NOp   1
                         Standard orientation:                         
 ---------------------------------------------------------------------
 Center     Atomic      Atomic             Coordinates (Angstroms)
 Number     Number       Type             X           Y           Z
 ---------------------------------------------------------------------
      1          8           0        0.674612    0.098299   -0.070116
      2          1           0        0.979586   -0.541563    0.560929
      3          8           0       -0.674612   -0.098299   -0.070116
      4          1           0       -0.979586    0.541563    0.560929
 ---------------------------------------------------------------------
 Rotational constants (GHZ):    318.9103146     29.1813456     29.0563122
 Leave Link  202 at Thu Oct  7 12:46:19 2021, MaxMem=    33554432 cpu:         0.0
 (Enter /apps/gaussian/g09/amd-sse4a/l301.exe)
 Standard basis: CC-pVDZ (5D, 7F)
 Ernie: Thresh=  0.10000D-02 Tol=  0.10000D-05 Strict=F.
 Ernie:  4 primitive shells out of 54 were deleted.
 There are    40 symmetry adapted cartesian basis functions of A   symmetry.
 There are    38 symmetry adapted basis functions of A   symmetry.
    38 basis functions,    80 primitive gaussians,    40 cartesian basis functions
     9 alpha electrons        9 beta electrons
       nuclear repulsion energy        38.6360833108 Hartrees.
 IExCor=    0 DFT=F Ex=HF Corr=None ExCW=0 ScaHFX=  1.000000
 ScaDFX=  1.000000  1.000000  1.000000  1.000000 ScalE2=  1.000000  1.000000
 IRadAn=      0 IRanWt=     -1 IRanGd=            0 ICorTp=0 IEmpDi=  4
 NAtoms=    4 NActive=    4 NUniq=    4 SFac= 1.00D+00 NAtFMM=   60 NAOKFM=F Big=F
 Integral buffers will be    131072 words long.
 Raffenetti 1 integral format.
 Two-electron integral symmetry is turned on.
 Leave Link  301 at Thu Oct  7 12:46:19 2021, MaxMem=    33554432 cpu:         0.0
 (Enter /apps/gaussian/g09/amd-sse4a/l302.exe)
 NPDir=0 NMtPBC=     1 NCelOv=     1 NCel=       1 NClECP=     1 NCelD=      1
         NCelK=      1 NCelE2=     1 NClLst=     1 CellRange=     0.0.
 One-electron integrals computed using PRISM.
 NBasis=    38 RedAO= T EigKep=  2.14D-02  NBF=    38
 NBsUse=    38 1.00D-06 EigRej= -1.00D+00 NBFU=    38
 Leave Link  302 at Thu Oct  7 12:46:19 2021, MaxMem=    33554432 cpu:         0.1
 (Enter /apps/gaussian/g09/amd-sse4a/l303.exe)
 DipDrv:  MaxL=1.
 Leave Link  303 at Thu Oct  7 12:46:19 2021, MaxMem=    33554432 cpu:         0.0
 (Enter /apps/gaussian/g09/amd-sse4a/l401.exe)
 Initial guess from the checkpoint file:  "peroxide.chk"
 B after Tr=     0.000000    0.000000    0.000000
         Rot=    0.750096    0.000000    0.000000    0.661329 Ang=  82.80 deg.
 Guess basis will be translated and rotated to current coordinates.
 JPrj=2 DoOrth=T DoCkMO=T.
 Generating alternative initial guess.
 ExpMin= 1.22D-01 ExpMax= 1.17D+04 ExpMxC= 4.01D+02 IAcc=1 IRadAn=         1 AccDes= 0.00D+00
 Harris functional with IExCor=  205 and IRadAn=       1 diagonalized for initial guess.
 HarFok:  IExCor=  205 AccDes= 0.00D+00 IRadAn=         1 IDoV= 1 UseB2=F ITyADJ=14
 ICtDFT=  3500011 ScaDFX=  1.000000  1.000000  1.000000  1.000000
 FoFCou: FMM=F IPFlag=           0 FMFlag=      100000 FMFlg1=           0
         NFxFlg=           0 DoJE=T BraDBF=F KetDBF=T FulRan=T
         wScrn=  0.000000 ICntrl=     500 IOpCl=  0 I1Cent=   200000004 NGrid=           0
         NMat0=    1 NMatS0=      1 NMatT0=    0 NMatD0=    1 NMtDS0=    0 NMtDT0=    0
 Petite list used in FoFCou.
 Harris En= -150.871680889972    
 Leave Link  401 at Thu Oct  7 12:46:19 2021, MaxMem=    33554432 cpu:         0.1
 (Enter /apps/gaussian/g09/amd-sse4a/l502.exe)
 Closed shell SCF:
 Using DIIS extrapolation, IDIIS=  1040.
 Integral symmetry usage will be decided dynamically.
 Keep R1 ints in memory in canonical form, NReq=1141117.
 IVT=       23894 IEndB=       23894 NGot=    33554432 MDV=    33255628
 LenX=    33255628 LenY=    33253587
 Requested convergence on RMS density matrix=1.00D-08 within 128 cycles.
 Requested convergence on MAX density matrix=1.00D-06.
 Requested convergence on             energy=1.00D-06.
 No special actions if energy rises.
 FoFCou: FMM=F IPFlag=           0 FMFlag=           0 FMFlg1=           0
         NFxFlg=           0 DoJE=F BraDBF=F KetDBF=F FulRan=T
         wScrn=  0.000000 ICntrl=     600 IOpCl=  0 I1Cent=           0 NGrid=           0
         NMat0=    1 NMatS0=    741 NMatT0=    0 NMatD0=    1 NMtDS0=    0 NMtDT0=    0
 Symmetry not used in FoFCou.

 Cycle   1  Pass 1  IDiag  1:
 E= -150.781031209170    
 DIIS: error= 7.95D-03 at cycle   1 NSaved=   1.
 NSaved= 1 IEnMin= 1 EnMin= -150.781031209170     IErMin= 1 ErrMin= 7.95D-03
 ErrMax= 7.95D-03  0.00D+00 EMaxC= 1.00D-01 BMatC= 3.63D-03 BMatP= 3.63D-03
 IDIUse=3 WtCom= 9.20D-01 WtEn= 7.95D-02
 Coeff-Com:  0.100D+01
 Coeff-En:   0.100D+01
 Coeff:      0.100D+01
 Gap=     1.245 Goal=   None    Shift=    0.000
 GapD=    1.245 DampG=2.000 DampE=1.000 DampFc=2.0000 IDamp=-1.
 RMSDP=1.54D-03 MaxDP=1.14D-02              OVMax= 1.39D-02

 Cycle   2  Pass 1  IDiag  1:
 E= -150.785122036569     Delta-E=       -0.004090827399 Rises=F Damp=F
 DIIS: error= 2.12D-03 at cycle   2 NSaved=   2.
 NSaved= 2 IEnMin= 2 EnMin= -150.785122036569     IErMin= 2 ErrMin= 2.12D-03
 ErrMax= 2.12D-03  0.00D+00 EMaxC= 1.00D-01 BMatC= 2.16D-04 BMatP= 3.63D-03
 IDIUse=3 WtCom= 9.79D-01 WtEn= 2.12D-02
 Coeff-Com: -0.197D+00 0.120D+01
 Coeff-En:   0.000D+00 0.100D+01
 Coeff:     -0.193D+00 0.119D+01
 Gap=     0.669 Goal=   None    Shift=    0.000
 RMSDP=4.98D-04 MaxDP=2.84D-03 DE=-4.09D-03 OVMax= 7.25D-03

 Cycle   3  Pass 1  IDiag  1:
 E= -150.785455396042     Delta-E=       -0.000333359473 Rises=F Damp=F
 DIIS: error= 5.67D-04 at cycle   3 NSaved=   3.
 NSaved= 3 IEnMin= 3 EnMin= -150.785455396042     IErMin= 3 ErrMin= 5.67D-04
 ErrMax= 5.67D-04  0.00D+00 EMaxC= 1.00D-01 BMatC= 2.30D-05 BMatP= 2.16D-04
 IDIUse=3 WtCom= 9.94D-01 WtEn= 5.67D-03
 Coeff-Com: -0.756D-01 0.249D+00 0.827D+00
 Coeff-En:   0.000D+00 0.000D+00 0.100D+01
 Coeff:     -0.751D-01 0.248D+00 0.828D+00
 Gap=     0.667 Goal=   None    Shift=    0.000
 RMSDP=1.27D-04 MaxDP=9.86D-04 DE=-3.33D-04 OVMax= 2.14D-03

 Cycle   4  Pass 1  IDiag  1:
 E= -150.785485449559     Delta-E=       -0.000030053517 Rises=F Damp=F
 DIIS: error= 2.50D-04 at cycle   4 NSaved=   4.
 NSaved= 4 IEnMin= 4 EnMin= -150.785485449559     IErMin= 4 ErrMin= 2.50D-04
 ErrMax= 2.50D-04  0.00D+00 EMaxC= 1.00D-01 BMatC= 2.45D-06 BMatP= 2.30D-05
 IDIUse=3 WtCom= 9.97D-01 WtEn= 2.50D-03
 Coeff-Com:  0.303D-01-0.152D+00-0.133D+00 0.125D+01
 Coeff-En:   0.000D+00 0.000D+00 0.000D+00 0.100D+01
 Coeff:      0.302D-01-0.151D+00-0.132D+00 0.125D+01
 Gap=     0.667 Goal=   None    Shift=    0.000
 RMSDP=9.01D-05 MaxDP=4.56D-04 DE=-3.01D-05 OVMax= 1.94D-03

 Cycle   5  Pass 1  IDiag  1:
 E= -150.785493503005     Delta-E=       -0.000008053446 Rises=F Damp=F
 DIIS: error= 9.30D-05 at cycle   5 NSaved=   5.
 NSaved= 5 IEnMin= 5 EnMin= -150.785493503005     IErMin= 5 ErrMin= 9.30D-05
 ErrMax= 9.30D-05  0.00D+00 EMaxC= 1.00D-01 BMatC= 3.47D-07 BMatP= 2.45D-06
 IDIUse=1 WtCom= 1.00D+00 WtEn= 0.00D+00
 Coeff-Com: -0.615D-06 0.124D-01-0.550D-01-0.361D+00 0.140D+01
 Coeff:     -0.615D-06 0.124D-01-0.550D-01-0.361D+00 0.140D+01
 Gap=     0.667 Goal=   None    Shift=    0.000
 RMSDP=4.53D-05 MaxDP=2.63D-04 DE=-8.05D-06 OVMax= 1.01D-03

 Cycle   6  Pass 1  IDiag  1:
 E= -150.785494914969     Delta-E=       -0.000001411965 Rises=F Damp=F
 DIIS: error= 2.44D-05 at cycle   6 NSaved=   6.
 NSaved= 6 IEnMin= 6 EnMin= -150.785494914969     IErMin= 6 ErrMin= 2.44D-05
 ErrMax= 2.44D-05  0.00D+00 EMaxC= 1.00D-01 BMatC= 2.81D-08 BMatP= 3.47D-07
 IDIUse=1 WtCom= 1.00D+00 WtEn= 0.00D+00
 Coeff-Com: -0.240D-02 0.919D-02 0.309D-01-0.213D-01-0.404D+00 0.139D+01
 Coeff:     -0.240D-02 0.919D-02 0.309D-01-0.213D-01-0.404D+00 0.139D+01
 Gap=     0.667 Goal=   None    Shift=    0.000
 RMSDP=1.40D-05 MaxDP=9.73D-05 DE=-1.41D-06 OVMax= 3.16D-04

 Cycle   7  Pass 1  IDiag  1:
 E= -150.785495030164     Delta-E=       -0.000000115195 Rises=F Damp=F
 DIIS: error= 6.59D-06 at cycle   7 NSaved=   7.
 NSaved= 7 IEnMin= 7 EnMin= -150.785495030164     IErMin= 7 ErrMin= 6.59D-06
 ErrMax= 6.59D-06  0.00D+00 EMaxC= 1.00D-01 BMatC= 1.69D-09 BMatP= 2.81D-08
 IDIUse=1 WtCom= 1.00D+00 WtEn= 0.00D+00
 Coeff-Com:  0.124D-02-0.601D-02-0.951D-02 0.375D-01 0.683D-01-0.567D+00
 Coeff-Com:  0.148D+01
 Coeff:      0.124D-02-0.601D-02-0.951D-02 0.375D-01 0.683D-01-0.567D+00
 Coeff:      0.148D+01
 Gap=     0.667 Goal=   None    Shift=    0.000
 RMSDP=2.96D-06 MaxDP=2.41D-05 DE=-1.15D-07 OVMax= 6.57D-05

 Cycle   8  Pass 1  IDiag  1:
 E= -150.785495035904     Delta-E=       -0.000000005740 Rises=F Damp=F
 DIIS: error= 9.82D-07 at cycle   8 NSaved=   8.
 NSaved= 8 IEnMin= 8 EnMin= -150.785495035904     IErMin= 8 ErrMin= 9.82D-07
 ErrMax= 9.82D-07  0.00D+00 EMaxC= 1.00D-01 BMatC= 6.03D-11 BMatP= 1.69D-09
 IDIUse=1 WtCom= 1.00D+00 WtEn= 0.00D+00
 Coeff-Com: -0.705D-04 0.485D-03 0.209D-03-0.493D-02 0.847D-02 0.392D-01
 Coeff-Com: -0.307D+00 0.126D+01
 Coeff:     -0.705D-04 0.485D-03 0.209D-03-0.493D-02 0.847D-02 0.392D-01
 Coeff:     -0.307D+00 0.126D+01
 Gap=     0.667 Goal=   None    Shift=    0.000
 RMSDP=4.60D-07 MaxDP=3.04D-06 DE=-5.74D-09 OVMax= 7.56D-06

 Cycle   9  Pass 1  IDiag  1:
 E= -150.785495036090     Delta-E=       -0.000000000186 Rises=F Damp=F
 DIIS: error= 2.26D-07 at cycle   9 NSaved=   9.
 NSaved= 9 IEnMin= 9 EnMin= -150.785495036090     IErMin= 9 ErrMin= 2.26D-07
 ErrMax= 2.26D-07  0.00D+00 EMaxC= 1.00D-01 BMatC= 2.18D-12 BMatP= 6.03D-11
 IDIUse=1 WtCom= 1.00D+00 WtEn= 0.00D+00
 Coeff-Com: -0.188D-04 0.535D-04 0.232D-03 0.943D-04-0.444D-02 0.843D-02
 Coeff-Com:  0.211D-01-0.306D+00 0.128D+01
 Coeff:     -0.188D-04 0.535D-04 0.232D-03 0.943D-04-0.444D-02 0.843D-02
 Coeff:      0.211D-01-0.306D+00 0.128D+01
 Gap=     0.667 Goal=   None    Shift=    0.000
 RMSDP=1.09D-07 MaxDP=6.14D-07 DE=-1.86D-10 OVMax= 1.68D-06

 Cycle  10  Pass 1  IDiag  1:
 E= -150.785495036098     Delta-E=       -0.000000000008 Rises=F Damp=F
 DIIS: error= 6.81D-08 at cycle  10 NSaved=  10.
 NSaved=10 IEnMin=10 EnMin= -150.785495036098     IErMin=10 ErrMin= 6.81D-08
 ErrMax= 6.81D-08  0.00D+00 EMaxC= 1.00D-01 BMatC= 1.12D-13 BMatP= 2.18D-12
 IDIUse=1 WtCom= 1.00D+00 WtEn= 0.00D+00
 Coeff-Com:  0.120D-04-0.451D-04-0.136D-03 0.178D-03 0.185D-02-0.617D-02
 Coeff-Com:  0.436D-02 0.817D-01-0.537D+00 0.146D+01
 Coeff:      0.120D-04-0.451D-04-0.136D-03 0.178D-03 0.185D-02-0.617D-02
 Coeff:      0.436D-02 0.817D-01-0.537D+00 0.146D+01
 Gap=     0.667 Goal=   None    Shift=    0.000
 RMSDP=2.54D-08 MaxDP=2.14D-07 DE=-7.82D-12 OVMax= 5.07D-07

 Cycle  11  Pass 1  IDiag  1:
 E= -150.785495036098     Delta-E=        0.000000000000 Rises=F Damp=F
 DIIS: error= 1.24D-08 at cycle  11 NSaved=  11.
 NSaved=11 IEnMin=11 EnMin= -150.785495036098     IErMin=11 ErrMin= 1.24D-08
 ErrMax= 1.24D-08  0.00D+00 EMaxC= 1.00D-01 BMatC= 5.69D-15 BMatP= 1.12D-13
 IDIUse=1 WtCom= 1.00D+00 WtEn= 0.00D+00
 Coeff-Com: -0.345D-05 0.142D-04 0.334D-04-0.686D-04-0.413D-03 0.168D-02
 Coeff-Com: -0.232D-02-0.159D-01 0.145D+00-0.578D+00 0.145D+01
 Coeff:     -0.345D-05 0.142D-04 0.334D-04-0.686D-04-0.413D-03 0.168D-02
 Coeff:     -0.232D-02-0.159D-01 0.145D+00-0.578D+00 0.145D+01
 Gap=     0.667 Goal=   None    Shift=    0.000
 RMSDP=5.54D-09 MaxDP=4.44D-08 DE=-3.41D-13 OVMax= 9.86D-08

 SCF Done:  E(RHF) =  -150.785495036     A.U. after   11 cycles
            NFock= 11  Conv=0.55D-08     -V/T= 1.9992
 KE= 1.509134899989D+02 PE=-4.357952353279D+02 EE= 9.546016698215D+01
 Leave Link  502 at Thu Oct  7 12:46:19 2021, MaxMem=    33554432 cpu:         0.1
 (Enter /apps/gaussian/g09/amd-sse4a/l701.exe)
 Compute integral first derivatives.
 ... and contract with generalized density number  0.
 Leave Link  701 at Thu Oct  7 12:46:19 2021, MaxMem=    33554432 cpu:         0.1
 (Enter /apps/gaussian/g09/amd-sse4a/l702.exe)
 L702 exits ... SP integral derivatives will be done elsewhere.
 Leave Link  702 at Thu Oct  7 12:46:19 2021, MaxMem=    33554432 cpu:         0.0
 (Enter /apps/gaussian/g09/amd-sse4a/l703.exe)
 Compute integral first derivatives, UseDBF=F ICtDFT=           0.
 Integral derivatives from FoFJK, PRISM(SPDF).
 Calling FoFJK, ICntrl=      2127 FMM=F ISym2X=0 I1Cent= 0 IOpClX= 0 NMat=1 NMatS=1 NMatT=0.
 FoFJK:  IHMeth= 1 ICntrl=    2127 DoSepK=F KAlg= 0 I1Cent=   0 FoldK=F
 IRaf=         0 NMat=   1 IRICut=       1 DoRegI=T DoRafI=F ISym2E= 0.
 FoFCou: FMM=F IPFlag=           0 FMFlag=      100000 FMFlg1=         800
         NFxFlg=           0 DoJE=F BraDBF=F KetDBF=F FulRan=T
         wScrn=  0.000000 ICntrl=    2127 IOpCl=  0 I1Cent=           0 NGrid=           0
         NMat0=    1 NMatS0=      1 NMatT0=    0 NMatD0=    1 NMtDS0=    0 NMtDT0=    0
 Symmetry not used in FoFCou.
 Leave Link  703 at Thu Oct  7 12:46:19 2021, MaxMem=    33554432 cpu:         0.1
 (Enter /apps/gaussian/g09/amd-sse4a/l716.exe)
 Dipole        = 1.63134972D-09 2.48192924D-08 9.32061147D-01
 ***** Axes restored to original set *****
 -------------------------------------------------------------------
 Center     Atomic                   Forces (Hartrees/Bohr)
 Number     Number              X              Y              Z
 -------------------------------------------------------------------
      1        8          -0.019549463   -0.000161760    0.008032938
      2        1          -0.003577772    0.002315123   -0.000428577
      3        8           0.020307234   -0.003521245   -0.004685385
      4        1           0.002820001    0.001367882   -0.002918976
 -------------------------------------------------------------------
 Cartesian Forces:  Max     0.020307234 RMS     0.008804163
 -----------------------------------------------------------------------------------------------
                       Internal Coordinate Forces (Hartree/Bohr or radian)
  Cent   Atom   N1       Length/X         N2         Alpha/Y        N3         Beta/Z          J
 -----------------------------------------------------------------------------------------------
      1  O 
      2  H        1  -0.000429(     1)
      3  O        1   0.024235(     2)      2   0.006416(     4)
      4  H        3  -0.000429(     3)      1   0.006416(     5)      2   0.004049(     6)     0
 -----------------------------------------------------------------------------------------------
 Internal  Forces:  Max     0.024235429 RMS     0.010696273
 Leave Link  716 at Thu Oct  7 12:46:19 2021, MaxMem=    33554432 cpu:         0.0
 (Enter /apps/gaussian/g09/amd-sse4a/l103.exe)

 GradGradGradGradGradGradGradGradGradGradGradGradGradGradGradGradGradGrad
 Berny optimization.
 Search for a local minimum.
 Step number   2 out of a maximum of   20
 All quantities printed in internal units (Hartrees-Bohrs-Radians)
 Update second derivatives using D2CorN and points    1    2
 DE= -5.11D-03 DEPred=-4.99D-03 R= 1.02D+00
 TightC=F SS=  1.41D+00  RLast= 2.01D-01 DXNew= 5.0454D-01 6.0218D-01
 Trust test= 1.02D+00 RLast= 2.01D-01 DXMaxT set to 5.05D-01
 The second derivative matrix:
                          B1        B2        B3        A1        A2
           B1           0.55462
           B2           0.00627   0.57151
           B3          -0.00012   0.00627   0.55462
           A1           0.00161   0.02656   0.00161   0.18205
           A2           0.00161   0.02656   0.00161   0.02205   0.18205
           D1           0.00107  -0.02394   0.00107  -0.00167  -0.00167
                          D1
           D1           0.01763
 ITU=  1  0
     Eigenvalues ---    0.01659   0.16000   0.20028   0.55124   0.55473
     Eigenvalues ---    0.57962
 RFO step:  Lambda=-2.82520048D-03 EMin= 1.65890421D-02
 Quartic linear search produced a step of  0.09425.
 Variable       Old X    -DE/DX   Delta X   Delta X   Delta X     New X
                                 (Linear)    (Quad)   (Total)
    B1        1.79340  -0.00043  -0.00195  -0.00016  -0.00211   1.79129
    B2        2.57659   0.02424   0.00774   0.04552   0.05326   2.62985
    B3        1.79340  -0.00043  -0.00195  -0.00016  -0.00211   1.79129
    A1        1.79341   0.00642  -0.01110   0.03869   0.02760   1.82101
    A2        1.79341   0.00642  -0.01110   0.03869   0.02760   1.82101
    D1        1.64125   0.00405   0.00664   0.26950   0.27614   1.91739
         Item               Value     Threshold  Converged?
 Maximum Force            0.024235     0.000450     NO 
 RMS     Force            0.010696     0.000300     NO 
 Maximum Displacement     0.276141     0.001800     NO 
 RMS     Displacement     0.115919     0.001200     NO 
 Predicted change in Energy=-1.426712D-03
 Lowest energy point so far.  Saving SCF results.
 GradGradGradGradGradGradGradGradGradGradGradGradGradGradGradGradGradGrad

 Leave Link  103 at Thu Oct  7 12:46:19 2021, MaxMem=    33554432 cpu:         0.0
 (Enter /apps/gaussian/g09/amd-sse4a/l202.exe)
 ---------------------------------------------------------------------------------------------------
                            Z-MATRIX (ANGSTROMS AND DEGREES)
   CD    Cent   Atom    N1       Length/X        N2       Alpha/Y        N3        Beta/Z          J
 ---------------------------------------------------------------------------------------------------
      1      1  O 
      2      2  H        1   0.947908(     1)
      3      3  O        1   1.391659(     2)      2  104.336(     4)
      4      4  H        3   0.947908(     3)      1  104.336(     5)      2  109.859(     6)      0
 ---------------------------------------------------------------------------------------------------
                         Z-Matrix orientation:                         
 ---------------------------------------------------------------------
 Center     Atomic      Atomic             Coordinates (Angstroms)
 Number     Number       Type             X           Y           Z
 ---------------------------------------------------------------------
      1          8           0        0.000000    0.000000    0.000000
      2          1           0        0.000000    0.000000    0.947908
      3          8           0        1.348323    0.000000   -0.344585
      4          1           0        1.498476   -0.863778   -0.704961
 ---------------------------------------------------------------------
                    Distance matrix (angstroms):
                    1          2          3          4
     1  O    0.000000
     2  H    0.947908   0.000000
     3  O    1.391659   1.867756   0.000000
     4  H    1.867756   2.392388   0.947908   0.000000
 Stoichiometry    H2O2
 Framework group  C1[X(H2O2)]
 Deg. of freedom     6
 Full point group                 C1      NOp   1
 RotChk:  IX=0 Diff= 2.04D-01
 Largest Abelian subgroup         C1      NOp   1
 Largest concise Abelian subgroup C1      NOp   1
                         Standard orientation:                         
 ---------------------------------------------------------------------
 Center     Atomic      Atomic             Coordinates (Angstroms)
 Number     Number       Type             X           Y           Z
 ---------------------------------------------------------------------
      1          8           0        0.686755    0.112009   -0.058633
      2          1           0        1.039398   -0.592057    0.469063
      3          8           0       -0.686755   -0.112009   -0.058633
      4          1           0       -1.039398    0.592057    0.469063
 ---------------------------------------------------------------------
 Rotational constants (GHZ):    327.2637309     28.2575993     27.5067025
 Leave Link  202 at Thu Oct  7 12:46:20 2021, MaxMem=    33554432 cpu:         0.0
 (Enter /apps/gaussian/g09/amd-sse4a/l301.exe)
 Standard basis: CC-pVDZ (5D, 7F)
 Ernie: Thresh=  0.10000D-02 Tol=  0.10000D-05 Strict=F.
 Ernie:  4 primitive shells out of 54 were deleted.
 There are    40 symmetry adapted cartesian basis functions of A   symmetry.
 There are    38 symmetry adapted basis functions of A   symmetry.
    38 basis functions,    80 primitive gaussians,    40 cartesian basis functions
     9 alpha electrons        9 beta electrons
       nuclear repulsion energy        38.0224337777 Hartrees.
 IExCor=    0 DFT=F Ex=HF Corr=None ExCW=0 ScaHFX=  1.000000
 ScaDFX=  1.000000  1.000000  1.000000  1.000000 ScalE2=  1.000000  1.000000
 IRadAn=      0 IRanWt=     -1 IRanGd=            0 ICorTp=0 IEmpDi=  4
 NAtoms=    4 NActive=    4 NUniq=    4 SFac= 1.00D+00 NAtFMM=   60 NAOKFM=F Big=F
 Integral buffers will be    131072 words long.
 Raffenetti 1 integral format.
 Two-electron integral symmetry is turned on.
 Leave Link  301 at Thu Oct  7 12:46:20 2021, MaxMem=    33554432 cpu:         0.0
 (Enter /apps/gaussian/g09/amd-sse4a/l302.exe)
 NPDir=0 NMtPBC=     1 NCelOv=     1 NCel=       1 NClECP=     1 NCelD=      1
         NCelK=      1 NCelE2=     1 NClLst=     1 CellRange=     0.0.
 One-electron integrals computed using PRISM.
 NBasis=    38 RedAO= T EigKep=  2.27D-02  NBF=    38
 NBsUse=    38 1.00D-06 EigRej= -1.00D+00 NBFU=    38
 Leave Link  302 at Thu Oct  7 12:46:20 2021, MaxMem=    33554432 cpu:         0.1
 (Enter /apps/gaussian/g09/amd-sse4a/l303.exe)
 DipDrv:  MaxL=1.
 Leave Link  303 at Thu Oct  7 12:46:20 2021, MaxMem=    33554432 cpu:         0.0
 (Enter /apps/gaussian/g09/amd-sse4a/l401.exe)
 Initial guess from the checkpoint file:  "peroxide.chk"
 B after Tr=     0.000000    0.000000    0.000000
         Rot=    0.999989    0.000000    0.000000   -0.004614 Ang=   0.53 deg.
 Guess basis will be translated and rotated to current coordinates.
 JPrj=2 DoOrth=T DoCkMO=T.
 Generating alternative initial guess.
 ExpMin= 1.22D-01 ExpMax= 1.17D+04 ExpMxC= 4.01D+02 IAcc=1 IRadAn=         1 AccDes= 0.00D+00
 Harris functional with IExCor=  205 and IRadAn=       1 diagonalized for initial guess.
 HarFok:  IExCor=  205 AccDes= 0.00D+00 IRadAn=         1 IDoV= 1 UseB2=F ITyADJ=14
 ICtDFT=  3500011 ScaDFX=  1.000000  1.000000  1.000000  1.000000
 FoFCou: FMM=F IPFlag=           0 FMFlag=      100000 FMFlg1=           0
         NFxFlg=           0 DoJE=T BraDBF=F KetDBF=T FulRan=T
         wScrn=  0.000000 ICntrl=     500 IOpCl=  0 I1Cent=   200000004 NGrid=           0
         NMat0=    1 NMatS0=      1 NMatT0=    0 NMatD0=    1 NMtDS0=    0 NMtDT0=    0
 Petite list used in FoFCou.
 Harris En= -150.872486692249    
 Leave Link  401 at Thu Oct  7 12:46:20 2021, MaxMem=    33554432 cpu:         0.1
 (Enter /apps/gaussian/g09/amd-sse4a/l502.exe)
 Closed shell SCF:
 Using DIIS extrapolation, IDIIS=  1040.
 Integral symmetry usage will be decided dynamically.
 Keep R1 ints in memory in canonical form, NReq=1141089.
 IVT=       23894 IEndB=       23894 NGot=    33554432 MDV=    33255628
 LenX=    33255628 LenY=    33253587
 Requested convergence on RMS density matrix=1.00D-08 within 128 cycles.
 Requested convergence on MAX density matrix=1.00D-06.
 Requested convergence on             energy=1.00D-06.
 No special actions if energy rises.
 FoFCou: FMM=F IPFlag=           0 FMFlag=           0 FMFlg1=           0
         NFxFlg=           0 DoJE=F BraDBF=F KetDBF=F FulRan=T
         wScrn=  0.000000 ICntrl=     600 IOpCl=  0 I1Cent=           0 NGrid=           0
         NMat0=    1 NMatS0=    741 NMatT0=    0 NMatD0=    1 NMtDS0=    0 NMtDT0=    0
 Symmetry not used in FoFCou.

 Cycle   1  Pass 1  IDiag  1:
 E= -150.780287645712    
 DIIS: error= 1.05D-02 at cycle   1 NSaved=   1.
 NSaved= 1 IEnMin= 1 EnMin= -150.780287645712     IErMin= 1 ErrMin= 1.05D-02
 ErrMax= 1.05D-02  0.00D+00 EMaxC= 1.00D-01 BMatC= 5.07D-03 BMatP= 5.07D-03
 IDIUse=3 WtCom= 8.95D-01 WtEn= 1.05D-01
 Coeff-Com:  0.100D+01
 Coeff-En:   0.100D+01
 Coeff:      0.100D+01
 Recover alternate guess density for next cycle.
 RMSDP=5.31D-03 MaxDP=4.72D-02              OVMax= 0.00D+00

 Cycle   2  Pass 1  IDiag  1:
 E= -150.736469089219     Delta-E=        0.043818556493 Rises=F Damp=F
 Switch densities from cycles 1 and 2 for lowest energy.
 DIIS: error= 3.15D-02 at cycle   2 NSaved=   2.
 NSaved= 2 IEnMin= 1 EnMin= -150.780287645712     IErMin= 1 ErrMin= 1.05D-02
 ErrMax= 3.15D-02  0.00D+00 EMaxC= 1.00D+00 BMatC= 9.33D-02 BMatP= 5.07D-03
 IDIUse=1 WtCom= 1.00D+00 WtEn= 0.00D+00
 Coeff-Com:  0.961D+00 0.389D-01
 Coeff:      0.961D+00 0.389D-01
 Gap=     0.771 Goal=   None    Shift=    0.000
 RMSDP=2.36D-03 MaxDP=2.31D-02 DE= 4.38D-02 OVMax= 5.94D-02

 Cycle   3  Pass 1  IDiag  1:
 E= -150.785916762731     Delta-E=       -0.049447673512 Rises=F Damp=F
 DIIS: error= 1.93D-03 at cycle   3 NSaved=   3.
 NSaved= 3 IEnMin= 3 EnMin= -150.785916762731     IErMin= 3 ErrMin= 1.93D-03
 ErrMax= 1.93D-03  0.00D+00 EMaxC= 1.00D+00 BMatC= 2.96D-04 BMatP= 5.07D-03
 IDIUse=1 WtCom= 1.00D+00 WtEn= 0.00D+00
 Coeff-Com: -0.210D+00 0.158D-01 0.119D+01
 Coeff:     -0.210D+00 0.158D-01 0.119D+01
 Gap=     0.663 Goal=   None    Shift=    0.000
 RMSDP=6.94D-04 MaxDP=6.49D-03 DE=-4.94D-02 OVMax= 1.05D-02

 Cycle   4  Pass 1  IDiag  1:
 E= -150.786410283826     Delta-E=       -0.000493521095 Rises=F Damp=F
 DIIS: error= 5.56D-04 at cycle   4 NSaved=   4.
 NSaved= 4 IEnMin= 4 EnMin= -150.786410283826     IErMin= 4 ErrMin= 5.56D-04
 ErrMax= 5.56D-04  0.00D+00 EMaxC= 1.00D+00 BMatC= 2.05D-05 BMatP= 2.96D-04
 IDIUse=1 WtCom= 1.00D+00 WtEn= 0.00D+00
 Coeff-Com: -0.268D-01-0.406D-02 0.360D-01 0.995D+00
 Coeff:     -0.268D-01-0.406D-02 0.360D-01 0.995D+00
 Gap=     0.661 Goal=   None    Shift=    0.000
 RMSDP=1.58D-04 MaxDP=1.29D-03 DE=-4.94D-04 OVMax= 2.61D-03

 Cycle   5  Pass 1  IDiag  1:
 E= -150.786450959053     Delta-E=       -0.000040675227 Rises=F Damp=F
 DIIS: error= 2.97D-04 at cycle   5 NSaved=   5.
 NSaved= 5 IEnMin= 5 EnMin= -150.786450959053     IErMin= 5 ErrMin= 2.97D-04
 ErrMax= 2.97D-04  0.00D+00 EMaxC= 1.00D+00 BMatC= 3.20D-06 BMatP= 2.05D-05
 IDIUse=1 WtCom= 1.00D+00 WtEn= 0.00D+00
 Coeff-Com:  0.288D-01 0.447D-03-0.155D+00-0.197D+00 0.132D+01
 Coeff:      0.288D-01 0.447D-03-0.155D+00-0.197D+00 0.132D+01
 Gap=     0.662 Goal=   None    Shift=    0.000
 RMSDP=1.12D-04 MaxDP=8.27D-04 DE=-4.07D-05 OVMax= 2.08D-03

 Cycle   6  Pass 1  IDiag  1:
 E= -150.786461371374     Delta-E=       -0.000010412321 Rises=F Damp=F
 DIIS: error= 5.14D-05 at cycle   6 NSaved=   6.
 NSaved= 6 IEnMin= 6 EnMin= -150.786461371374     IErMin= 6 ErrMin= 5.14D-05
 ErrMax= 5.14D-05  0.00D+00 EMaxC= 1.00D+00 BMatC= 1.76D-07 BMatP= 3.20D-06
 IDIUse=1 WtCom= 1.00D+00 WtEn= 0.00D+00
 Coeff-Com: -0.679D-02 0.153D-03 0.413D-01-0.182D-01-0.362D+00 0.135D+01
 Coeff:     -0.679D-02 0.153D-03 0.413D-01-0.182D-01-0.362D+00 0.135D+01
 Gap=     0.662 Goal=   None    Shift=    0.000
 RMSDP=3.09D-05 MaxDP=2.26D-04 DE=-1.04D-05 OVMax= 5.43D-04

 Cycle   7  Pass 1  IDiag  1:
 E= -150.786461992684     Delta-E=       -0.000000621309 Rises=F Damp=F
 DIIS: error= 1.97D-05 at cycle   7 NSaved=   7.
 NSaved= 7 IEnMin= 7 EnMin= -150.786461992684     IErMin= 7 ErrMin= 1.97D-05
 ErrMax= 1.97D-05  0.00D+00 EMaxC= 1.00D+00 BMatC= 1.13D-08 BMatP= 1.76D-07
 IDIUse=1 WtCom= 1.00D+00 WtEn= 0.00D+00
 Coeff-Com: -0.107D-02-0.609D-04 0.584D-02 0.159D-01-0.486D-01-0.123D+00
 Coeff-Com:  0.115D+01
 Coeff:     -0.107D-02-0.609D-04 0.584D-02 0.159D-01-0.486D-01-0.123D+00
 Coeff:      0.115D+01
 Gap=     0.662 Goal=   None    Shift=    0.000
 RMSDP=5.82D-06 MaxDP=4.56D-05 DE=-6.21D-07 OVMax= 1.26D-04

 Cycle   8  Pass 1  IDiag  1:
 E= -150.786462030139     Delta-E=       -0.000000037455 Rises=F Damp=F
 DIIS: error= 8.31D-06 at cycle   8 NSaved=   8.
 NSaved= 8 IEnMin= 8 EnMin= -150.786462030139     IErMin= 8 ErrMin= 8.31D-06
 ErrMax= 8.31D-06  0.00D+00 EMaxC= 1.00D+00 BMatC= 2.05D-09 BMatP= 1.13D-08
 IDIUse=1 WtCom= 1.00D+00 WtEn= 0.00D+00
 Coeff-Com:  0.935D-03 0.263D-04-0.550D-02-0.872D-02 0.487D-01-0.666D-03
 Coeff-Com: -0.851D+00 0.182D+01
 Coeff:      0.935D-03 0.263D-04-0.550D-02-0.872D-02 0.487D-01-0.666D-03
 Coeff:     -0.851D+00 0.182D+01
 Gap=     0.662 Goal=   None    Shift=    0.000
 RMSDP=4.20D-06 MaxDP=2.95D-05 DE=-3.75D-08 OVMax= 9.76D-05

 Cycle   9  Pass 1  IDiag  1:
 E= -150.786462040401     Delta-E=       -0.000000010262 Rises=F Damp=F
 DIIS: error= 1.99D-06 at cycle   9 NSaved=   9.
 NSaved= 9 IEnMin= 9 EnMin= -150.786462040401     IErMin= 9 ErrMin= 1.99D-06
 ErrMax= 1.99D-06  0.00D+00 EMaxC= 1.00D+00 BMatC= 1.14D-10 BMatP= 2.05D-09
 IDIUse=1 WtCom= 1.00D+00 WtEn= 0.00D+00
 Coeff-Com: -0.277D-03 0.738D-06 0.171D-02 0.126D-02-0.136D-01 0.156D-01
 Coeff-Com:  0.183D+00-0.638D+00 0.145D+01
 Coeff:     -0.277D-03 0.738D-06 0.171D-02 0.126D-02-0.136D-01 0.156D-01
 Coeff:      0.183D+00-0.638D+00 0.145D+01
 Gap=     0.662 Goal=   None    Shift=    0.000
 RMSDP=1.07D-06 MaxDP=6.67D-06 DE=-1.03D-08 OVMax= 2.49D-05

 Cycle  10  Pass 1  IDiag  1:
 E= -150.786462040936     Delta-E=       -0.000000000535 Rises=F Damp=F
 DIIS: error= 2.69D-07 at cycle  10 NSaved=  10.
 NSaved=10 IEnMin=10 EnMin= -150.786462040936     IErMin=10 ErrMin= 2.69D-07
 ErrMax= 2.69D-07  0.00D+00 EMaxC= 1.00D+00 BMatC= 3.61D-12 BMatP= 1.14D-10
 IDIUse=1 WtCom= 1.00D+00 WtEn= 0.00D+00
 Coeff-Com:  0.131D-04-0.102D-05-0.842D-04-0.382D-04 0.844D-03-0.233D-02
 Coeff-Com: -0.474D-02 0.592D-01-0.300D+00 0.125D+01
 Coeff:      0.131D-04-0.102D-05-0.842D-04-0.382D-04 0.844D-03-0.233D-02
 Coeff:     -0.474D-02 0.592D-01-0.300D+00 0.125D+01
 Gap=     0.662 Goal=   None    Shift=    0.000
 RMSDP=1.32D-07 MaxDP=7.07D-07 DE=-5.35D-10 OVMax= 2.32D-06

 Cycle  11  Pass 1  IDiag  1:
 E= -150.786462040949     Delta-E=       -0.000000000012 Rises=F Damp=F
 DIIS: error= 7.60D-08 at cycle  11 NSaved=  11.
 NSaved=11 IEnMin=11 EnMin= -150.786462040949     IErMin=11 ErrMin= 7.60D-08
 ErrMax= 7.60D-08  0.00D+00 EMaxC= 1.00D+00 BMatC= 3.05D-13 BMatP= 3.61D-12
 IDIUse=1 WtCom= 1.00D+00 WtEn= 0.00D+00
 Coeff-Com:  0.180D-04 0.770D-06-0.110D-03-0.150D-03 0.944D-03-0.380D-03
 Coeff-Com: -0.155D-01 0.359D-01-0.207D-01-0.395D+00 0.139D+01
 Coeff:      0.180D-04 0.770D-06-0.110D-03-0.150D-03 0.944D-03-0.380D-03
 Coeff:     -0.155D-01 0.359D-01-0.207D-01-0.395D+00 0.139D+01
 Gap=     0.662 Goal=   None    Shift=    0.000
 RMSDP=3.59D-08 MaxDP=2.01D-07 DE=-1.24D-11 OVMax= 5.25D-07

 Cycle  12  Pass 1  IDiag  1:
 E= -150.786462040950     Delta-E=       -0.000000000001 Rises=F Damp=F
 DIIS: error= 9.03D-09 at cycle  12 NSaved=  12.
 NSaved=12 IEnMin=12 EnMin= -150.786462040950     IErMin=12 ErrMin= 9.03D-09
 ErrMax= 9.03D-09  0.00D+00 EMaxC= 1.00D+00 BMatC= 4.60D-15 BMatP= 3.05D-13
 IDIUse=1 WtCom= 1.00D+00 WtEn= 0.00D+00
 Coeff-Com: -0.351D-05-0.115D-06 0.215D-04 0.252D-04-0.181D-03 0.142D-03
 Coeff-Com:  0.270D-02-0.793D-02 0.135D-01 0.310D-01-0.251D+00 0.121D+01
 Coeff:     -0.351D-05-0.115D-06 0.215D-04 0.252D-04-0.181D-03 0.142D-03
 Coeff:      0.270D-02-0.793D-02 0.135D-01 0.310D-01-0.251D+00 0.121D+01
 Gap=     0.662 Goal=   None    Shift=    0.000
 RMSDP=3.47D-09 MaxDP=1.85D-08 DE=-1.17D-12 OVMax= 6.66D-08

 SCF Done:  E(RHF) =  -150.786462041     A.U. after   12 cycles
            NFock= 12  Conv=0.35D-08     -V/T= 1.9997
 KE= 1.508319054592D+02 PE=-4.345389034680D+02 EE= 9.489810219023D+01
 Leave Link  502 at Thu Oct  7 12:46:20 2021, MaxMem=    33554432 cpu:         0.1
 (Enter /apps/gaussian/g09/amd-sse4a/l701.exe)
 Compute integral first derivatives.
 ... and contract with generalized density number  0.
 Leave Link  701 at Thu Oct  7 12:46:20 2021, MaxMem=    33554432 cpu:         0.0
 (Enter /apps/gaussian/g09/amd-sse4a/l702.exe)
 L702 exits ... SP integral derivatives will be done elsewhere.
 Leave Link  702 at Thu Oct  7 12:46:20 2021, MaxMem=    33554432 cpu:         0.0
 (Enter /apps/gaussian/g09/amd-sse4a/l703.exe)
 Compute integral first derivatives, UseDBF=F ICtDFT=           0.
 Integral derivatives from FoFJK, PRISM(SPDF).
 Calling FoFJK, ICntrl=      2127 FMM=F ISym2X=0 I1Cent= 0 IOpClX= 0 NMat=1 NMatS=1 NMatT=0.
 FoFJK:  IHMeth= 1 ICntrl=    2127 DoSepK=F KAlg= 0 I1Cent=   0 FoldK=F
 IRaf=         0 NMat=   1 IRICut=       1 DoRegI=T DoRafI=F ISym2E= 0.
 FoFCou: FMM=F IPFlag=           0 FMFlag=      100000 FMFlg1=         800
         NFxFlg=           0 DoJE=F BraDBF=F KetDBF=F FulRan=T
         wScrn=  0.000000 ICntrl=    2127 IOpCl=  0 I1Cent=           0 NGrid=           0
         NMat0=    1 NMatS0=      1 NMatT0=    0 NMatD0=    1 NMtDS0=    0 NMtDT0=    0
 Symmetry not used in FoFCou.
 Leave Link  703 at Thu Oct  7 12:46:20 2021, MaxMem=    33554432 cpu:         0.1
 (Enter /apps/gaussian/g09/amd-sse4a/l716.exe)
 Dipole        = 3.99429432D-08 5.57923232D-08 7.93803216D-01
 ***** Axes restored to original set *****
 -------------------------------------------------------------------
 Center     Atomic                   Forces (Hartrees/Bohr)
 Number     Number              X              Y              Z
 -------------------------------------------------------------------
      1        8          -0.001437041   -0.003182886   -0.006158029
      2        1           0.004872233    0.000055421    0.000682160
      3        8           0.001144638    0.004864911    0.005013936
      4        1          -0.004579830   -0.001737446    0.000461934
 -------------------------------------------------------------------
 Cartesian Forces:  Max     0.006158029 RMS     0.003519568
 -----------------------------------------------------------------------------------------------
                       Internal Coordinate Forces (Hartree/Bohr or radian)
  Cent   Atom   N1       Length/X         N2         Alpha/Y        N3         Beta/Z          J
 -----------------------------------------------------------------------------------------------
      1  O 
      2  H        1   0.000682(     1)
      3  O        1  -0.004684(     2)      2  -0.008728(     4)
      4  H        3   0.000682(     3)      1  -0.008728(     5)      2   0.000096(     6)     0
 -----------------------------------------------------------------------------------------------
 Internal  Forces:  Max     0.008727555 RMS     0.005404023
 Leave Link  716 at Thu Oct  7 12:46:20 2021, MaxMem=    33554432 cpu:         0.0
 (Enter /apps/gaussian/g09/amd-sse4a/l103.exe)

 GradGradGradGradGradGradGradGradGradGradGradGradGradGradGradGradGradGrad
 Berny optimization.
 Search for a local minimum.
 Step number   3 out of a maximum of   20
 All quantities printed in internal units (Hartrees-Bohrs-Radians)
 Update second derivatives using D2CorN and points    1    2    3
 DE= -9.67D-04 DEPred=-1.43D-03 R= 6.78D-01
 TightC=F SS=  1.41D+00  RLast= 2.84D-01 DXNew= 8.4853D-01 8.5183D-01
 Trust test= 6.78D-01 RLast= 2.84D-01 DXMaxT set to 8.49D-01
 The second derivative matrix:
                          B1        B2        B3        A1        A2
           B1           0.55472
           B2           0.00631   0.56896
           B3          -0.00001   0.00631   0.55472
           A1           0.00131   0.03403   0.00131   0.18205
           A2           0.00131   0.03403   0.00131   0.02205   0.18205
           D1          -0.00043  -0.02177  -0.00043   0.01567   0.01567
                          D1
           D1           0.01977
 ITU=  1  1  0
     Eigenvalues ---    0.01577   0.16000   0.20121   0.55128   0.55473
     Eigenvalues ---    0.57928
 RFO step:  Lambda=-4.91473341D-04 EMin= 1.57723665D-02
 Quartic linear search produced a step of -0.22199.
 Variable       Old X    -DE/DX   Delta X   Delta X   Delta X     New X
                                 (Linear)    (Quad)   (Total)
    B1        1.79129   0.00068   0.00047   0.00091   0.00138   1.79267
    B2        2.62985  -0.00468  -0.01182   0.01134  -0.00049   2.62937
    B3        1.79129   0.00068   0.00047   0.00091   0.00138   1.79267
    A1        1.82101  -0.00873  -0.00613  -0.03633  -0.04246   1.77855
    A2        1.82101  -0.00873  -0.00613  -0.03633  -0.04246   1.77855
    D1        1.91739   0.00010  -0.06130   0.10575   0.04445   1.96184
         Item               Value     Threshold  Converged?
 Maximum Force            0.008728     0.000450     NO 
 RMS     Force            0.005404     0.000300     NO 
 Maximum Displacement     0.044448     0.001800     NO 
 RMS     Displacement     0.030509     0.001200     NO 
 Predicted change in Energy=-4.185991D-04
 Lowest energy point so far.  Saving SCF results.
 GradGradGradGradGradGradGradGradGradGradGradGradGradGradGradGradGradGrad

 Leave Link  103 at Thu Oct  7 12:46:20 2021, MaxMem=    33554432 cpu:         0.0
 (Enter /apps/gaussian/g09/amd-sse4a/l202.exe)
 ---------------------------------------------------------------------------------------------------
                            Z-MATRIX (ANGSTROMS AND DEGREES)
   CD    Cent   Atom    N1       Length/X        N2       Alpha/Y        N3        Beta/Z          J
 ---------------------------------------------------------------------------------------------------
      1      1  O 
      2      2  H        1   0.948638(     1)
      3      3  O        1   1.391402(     2)      2  101.903(     4)
      4      4  H        3   0.948638(     3)      1  101.903(     5)      2  112.405(     6)      0
 ---------------------------------------------------------------------------------------------------
                         Z-Matrix orientation:                         
 ---------------------------------------------------------------------
 Center     Atomic      Atomic             Coordinates (Angstroms)
 Number     Number       Type             X           Y           Z
 ---------------------------------------------------------------------
      1          8           0        0.000000    0.000000    0.000000
      2          1           0        0.000000    0.000000    0.948638
      3          8           0        1.361482    0.000000   -0.286994
      4          1           0        1.479967   -0.858168   -0.673548
 ---------------------------------------------------------------------
                    Distance matrix (angstroms):
                    1          2          3          4
     1  O    0.000000
     2  H    0.948638   0.000000
     3  O    1.391402   1.838592   0.000000
     4  H    1.838592   2.357592   0.948638   0.000000
 Stoichiometry    H2O2
 Framework group  C1[X(H2O2)]
 Deg. of freedom     6
 Full point group                 C1      NOp   1
 RotChk:  IX=0 Diff= 6.65D-02
 Largest Abelian subgroup         C1      NOp   1
 Largest concise Abelian subgroup C1      NOp   1
                         Standard orientation:                         
 ---------------------------------------------------------------------
 Center     Atomic      Atomic             Coordinates (Angstroms)
 Number     Number       Type             X           Y           Z
 ---------------------------------------------------------------------
      1          8           0        0.686495    0.112802   -0.057371
      2          1           0        1.004647   -0.616640    0.458969
      3          8           0       -0.686495   -0.112802   -0.057371
      4          1           0       -1.004647    0.616640    0.458969
 ---------------------------------------------------------------------
 Rotational constants (GHZ):    318.8754423     28.5361592     27.6406004
 Leave Link  202 at Thu Oct  7 12:46:20 2021, MaxMem=    33554432 cpu:         0.0
 (Enter /apps/gaussian/g09/amd-sse4a/l301.exe)
 Standard basis: CC-pVDZ (5D, 7F)
 Ernie: Thresh=  0.10000D-02 Tol=  0.10000D-05 Strict=F.
 Ernie:  4 primitive shells out of 54 were deleted.
 There are    40 symmetry adapted cartesian basis functions of A   symmetry.
 There are    38 symmetry adapted basis functions of A   symmetry.
    38 basis functions,    80 primitive gaussians,    40 cartesian basis functions
     9 alpha electrons        9 beta electrons
       nuclear repulsion energy        38.0952180124 Hartrees.
 IExCor=    0 DFT=F Ex=HF Corr=None ExCW=0 ScaHFX=  1.000000
 ScaDFX=  1.000000  1.000000  1.000000  1.000000 ScalE2=  1.000000  1.000000
 IRadAn=      0 IRanWt=     -1 IRanGd=            0 ICorTp=0 IEmpDi=  4
 NAtoms=    4 NActive=    4 NUniq=    4 SFac= 1.00D+00 NAtFMM=   60 NAOKFM=F Big=F
 Integral buffers will be    131072 words long.
 Raffenetti 1 integral format.
 Two-electron integral symmetry is turned on.
 Leave Link  301 at Thu Oct  7 12:46:20 2021, MaxMem=    33554432 cpu:         0.0
 (Enter /apps/gaussian/g09/amd-sse4a/l302.exe)
 NPDir=0 NMtPBC=     1 NCelOv=     1 NCel=       1 NClECP=     1 NCelD=      1
         NCelK=      1 NCelE2=     1 NClLst=     1 CellRange=     0.0.
 One-electron integrals computed using PRISM.
 NBasis=    38 RedAO= T EigKep=  2.25D-02  NBF=    38
 NBsUse=    38 1.00D-06 EigRej= -1.00D+00 NBFU=    38
 Leave Link  302 at Thu Oct  7 12:46:20 2021, MaxMem=    33554432 cpu:         0.1
 (Enter /apps/gaussian/g09/amd-sse4a/l303.exe)
 DipDrv:  MaxL=1.
 Leave Link  303 at Thu Oct  7 12:46:20 2021, MaxMem=    33554432 cpu:         0.0
 (Enter /apps/gaussian/g09/amd-sse4a/l401.exe)
 Initial guess from the checkpoint file:  "peroxide.chk"
 B after Tr=     0.000000    0.000000    0.000000
         Rot=    0.999992    0.000000    0.000000    0.003932 Ang=  -0.45 deg.
 Guess basis will be translated and rotated to current coordinates.
 JPrj=2 DoOrth=T DoCkMO=T.
 Generating alternative initial guess.
 ExpMin= 1.22D-01 ExpMax= 1.17D+04 ExpMxC= 4.01D+02 IAcc=1 IRadAn=         1 AccDes= 0.00D+00
 Harris functional with IExCor=  205 and IRadAn=       1 diagonalized for initial guess.
 HarFok:  IExCor=  205 AccDes= 0.00D+00 IRadAn=         1 IDoV= 1 UseB2=F ITyADJ=14
 ICtDFT=  3500011 ScaDFX=  1.000000  1.000000  1.000000  1.000000
 FoFCou: FMM=F IPFlag=           0 FMFlag=      100000 FMFlg1=           0
         NFxFlg=           0 DoJE=T BraDBF=F KetDBF=T FulRan=T
         wScrn=  0.000000 ICntrl=     500 IOpCl=  0 I1Cent=   200000004 NGrid=           0
         NMat0=    1 NMatS0=      1 NMatT0=    0 NMatD0=    1 NMtDS0=    0 NMtDT0=    0
 Petite list used in FoFCou.
 Harris En= -150.872257291459    
 Leave Link  401 at Thu Oct  7 12:46:20 2021, MaxMem=    33554432 cpu:         0.1
 (Enter /apps/gaussian/g09/amd-sse4a/l502.exe)
 Closed shell SCF:
 Using DIIS extrapolation, IDIIS=  1040.
 Integral symmetry usage will be decided dynamically.
 Keep R1 ints in memory in canonical form, NReq=1141089.
 IVT=       23894 IEndB=       23894 NGot=    33554432 MDV=    33255628
 LenX=    33255628 LenY=    33253587
 Requested convergence on RMS density matrix=1.00D-08 within 128 cycles.
 Requested convergence on MAX density matrix=1.00D-06.
 Requested convergence on             energy=1.00D-06.
 No special actions if energy rises.
 FoFCou: FMM=F IPFlag=           0 FMFlag=           0 FMFlg1=           0
         NFxFlg=           0 DoJE=F BraDBF=F KetDBF=F FulRan=T
         wScrn=  0.000000 ICntrl=     600 IOpCl=  0 I1Cent=           0 NGrid=           0
         NMat0=    1 NMatS0=    741 NMatT0=    0 NMatD0=    1 NMtDS0=    0 NMtDT0=    0
 Symmetry not used in FoFCou.

 Cycle   1  Pass 1  IDiag  1:
 E= -150.786305084893    
 DIIS: error= 2.84D-03 at cycle   1 NSaved=   1.
 NSaved= 1 IEnMin= 1 EnMin= -150.786305084893     IErMin= 1 ErrMin= 2.84D-03
 ErrMax= 2.84D-03  0.00D+00 EMaxC= 1.00D-01 BMatC= 3.50D-04 BMatP= 3.50D-04
 IDIUse=3 WtCom= 9.72D-01 WtEn= 2.84D-02
 Coeff-Com:  0.100D+01
 Coeff-En:   0.100D+01
 Coeff:      0.100D+01
 Gap=     1.245 Goal=   None    Shift=    0.000
 GapD=    1.245 DampG=2.000 DampE=1.000 DampFc=2.0000 IDamp=-1.
 RMSDP=5.72D-04 MaxDP=4.22D-03              OVMax= 4.15D-03

 Cycle   2  Pass 1  IDiag  1:
 E= -150.786689660883     Delta-E=       -0.000384575990 Rises=F Damp=F
 DIIS: error= 6.20D-04 at cycle   2 NSaved=   2.
 NSaved= 2 IEnMin= 2 EnMin= -150.786689660883     IErMin= 2 ErrMin= 6.20D-04
 ErrMax= 6.20D-04  0.00D+00 EMaxC= 1.00D-01 BMatC= 1.89D-05 BMatP= 3.50D-04
 IDIUse=3 WtCom= 9.94D-01 WtEn= 6.20D-03
 Coeff-Com: -0.231D+00 0.123D+01
 Coeff-En:   0.000D+00 0.100D+01
 Coeff:     -0.230D+00 0.123D+01
 Gap=     0.660 Goal=   None    Shift=    0.000
 RMSDP=1.75D-04 MaxDP=1.12D-03 DE=-3.85D-04 OVMax= 2.76D-03

 Cycle   3  Pass 1  IDiag  1:
 E= -150.786723204626     Delta-E=       -0.000033543743 Rises=F Damp=F
 DIIS: error= 1.90D-04 at cycle   3 NSaved=   3.
 NSaved= 3 IEnMin= 3 EnMin= -150.786723204626     IErMin= 3 ErrMin= 1.90D-04
 ErrMax= 1.90D-04  0.00D+00 EMaxC= 1.00D-01 BMatC= 1.31D-06 BMatP= 1.89D-05
 IDIUse=3 WtCom= 9.98D-01 WtEn= 1.90D-03
 Coeff-Com:  0.119D-01-0.145D+00 0.113D+01
 Coeff-En:   0.000D+00 0.000D+00 0.100D+01
 Coeff:      0.119D-01-0.144D+00 0.113D+01
 Gap=     0.660 Goal=   None    Shift=    0.000
 RMSDP=5.46D-05 MaxDP=3.17D-04 DE=-3.35D-05 OVMax= 1.21D-03

 Cycle   4  Pass 1  IDiag  1:
 E= -150.786727095346     Delta-E=       -0.000003890720 Rises=F Damp=F
 DIIS: error= 1.02D-04 at cycle   4 NSaved=   4.
 NSaved= 4 IEnMin= 4 EnMin= -150.786727095346     IErMin= 4 ErrMin= 1.02D-04
 ErrMax= 1.02D-04  0.00D+00 EMaxC= 1.00D-01 BMatC= 3.62D-07 BMatP= 1.31D-06
 IDIUse=3 WtCom= 9.99D-01 WtEn= 1.02D-03
 Coeff-Com:  0.438D-01-0.244D+00 0.760D-01 0.112D+01
 Coeff-En:   0.000D+00 0.000D+00 0.000D+00 0.100D+01
 Coeff:      0.437D-01-0.244D+00 0.759D-01 0.112D+01
 Gap=     0.660 Goal=   None    Shift=    0.000
 RMSDP=3.71D-05 MaxDP=2.23D-04 DE=-3.89D-06 OVMax= 8.58D-04

 Cycle   5  Pass 1  IDiag  1:
 E= -150.786728339546     Delta-E=       -0.000001244200 Rises=F Damp=F
 DIIS: error= 3.70D-05 at cycle   5 NSaved=   5.
 NSaved= 5 IEnMin= 5 EnMin= -150.786728339546     IErMin= 5 ErrMin= 3.70D-05
 ErrMax= 3.70D-05  0.00D+00 EMaxC= 1.00D-01 BMatC= 4.74D-08 BMatP= 3.62D-07
 IDIUse=1 WtCom= 1.00D+00 WtEn= 0.00D+00
 Coeff-Com: -0.105D-01 0.702D-01-0.193D+00-0.301D+00 0.143D+01
 Coeff:     -0.105D-01 0.702D-01-0.193D+00-0.301D+00 0.143D+01
 Gap=     0.660 Goal=   None    Shift=    0.000
 RMSDP=2.06D-05 MaxDP=1.33D-04 DE=-1.24D-06 OVMax= 4.73D-04

 Cycle   6  Pass 1  IDiag  1:
 E= -150.786728560001     Delta-E=       -0.000000220455 Rises=F Damp=F
 DIIS: error= 8.67D-06 at cycle   6 NSaved=   6.
 NSaved= 6 IEnMin= 6 EnMin= -150.786728560001     IErMin= 6 ErrMin= 8.67D-06
 ErrMax= 8.67D-06  0.00D+00 EMaxC= 1.00D-01 BMatC= 3.06D-09 BMatP= 4.74D-08
 IDIUse=1 WtCom= 1.00D+00 WtEn= 0.00D+00
 Coeff-Com: -0.124D-02 0.505D-02 0.366D-01-0.400D-01-0.248D+00 0.125D+01
 Coeff:     -0.124D-02 0.505D-02 0.366D-01-0.400D-01-0.248D+00 0.125D+01
 Gap=     0.660 Goal=   None    Shift=    0.000
[...]
 Integral symmetry usage will be decided dynamically.
 Keep R1 ints in memory in canonical form, NReq=1141089.
 IVT=       23894 IEndB=       23894 NGot=    33554432 MDV=    33255628
 LenX=    33255628 LenY=    33253587
 Requested convergence on RMS density matrix=1.00D-08 within 128 cycles.
 Requested convergence on MAX density matrix=1.00D-06.
 Requested convergence on             energy=1.00D-06.
 No special actions if energy rises.
 FoFCou: FMM=F IPFlag=           0 FMFlag=           0 FMFlg1=           0
         NFxFlg=           0 DoJE=F BraDBF=F KetDBF=F FulRan=T
         wScrn=  0.000000 ICntrl=     600 IOpCl=  0 I1Cent=           0 NGrid=           0
         NMat0=    1 NMatS0=    741 NMatT0=    0 NMatD0=    1 NMtDS0=    0 NMtDT0=    0
 Symmetry not used in FoFCou.

 Cycle   1  Pass 1  IDiag  1:
 E= -150.786763754145    
 DIIS: error= 2.68D-04 at cycle   1 NSaved=   1.
 NSaved= 1 IEnMin= 1 EnMin= -150.786763754145     IErMin= 1 ErrMin= 2.68D-04
 ErrMax= 2.68D-04  0.00D+00 EMaxC= 1.00D-01 BMatC= 2.48D-06 BMatP= 2.48D-06
 IDIUse=3 WtCom= 9.97D-01 WtEn= 2.68D-03
 Coeff-Com:  0.100D+01
 Coeff-En:   0.100D+01
 Coeff:      0.100D+01
 Gap=     1.249 Goal=   None    Shift=    0.000
 RMSDP=5.38D-05 MaxDP=5.63D-04              OVMax= 3.98D-04

 Cycle   2  Pass 1  IDiag  1:
 E= -150.786766561662     Delta-E=       -0.000002807517 Rises=F Damp=F
 DIIS: error= 4.91D-05 at cycle   2 NSaved=   2.
 NSaved= 2 IEnMin= 2 EnMin= -150.786766561662     IErMin= 2 ErrMin= 4.91D-05
 ErrMax= 4.91D-05  0.00D+00 EMaxC= 1.00D-01 BMatC= 1.46D-07 BMatP= 2.48D-06
 IDIUse=1 WtCom= 1.00D+00 WtEn= 0.00D+00
 Coeff-Com: -0.251D+00 0.125D+01
 Coeff:     -0.251D+00 0.125D+01
 Gap=     0.658 Goal=   None    Shift=    0.000
 RMSDP=1.64D-05 MaxDP=1.72D-04 DE=-2.81D-06 OVMax= 2.24D-04

 Cycle   3  Pass 1  IDiag  1:
 E= -150.786766821055     Delta-E=       -0.000000259393 Rises=F Damp=F
 DIIS: error= 1.31D-05 at cycle   3 NSaved=   3.
 NSaved= 3 IEnMin= 3 EnMin= -150.786766821055     IErMin= 3 ErrMin= 1.31D-05
 ErrMax= 1.31D-05  0.00D+00 EMaxC= 1.00D-01 BMatC= 7.15D-09 BMatP= 1.46D-07
 IDIUse=1 WtCom= 1.00D+00 WtEn= 0.00D+00
 Coeff-Com:  0.533D-01-0.346D+00 0.129D+01
 Coeff:      0.533D-01-0.346D+00 0.129D+01
 Gap=     0.658 Goal=   None    Shift=    0.000
 RMSDP=4.40D-06 MaxDP=3.29D-05 DE=-2.59D-07 OVMax= 8.24D-05

 Cycle   4  Pass 1  IDiag  1:
 E= -150.786766842329     Delta-E=       -0.000000021274 Rises=F Damp=F
 DIIS: error= 4.54D-06 at cycle   4 NSaved=   4.
 NSaved= 4 IEnMin= 4 EnMin= -150.786766842329     IErMin= 4 ErrMin= 4.54D-06
 ErrMax= 4.54D-06  0.00D+00 EMaxC= 1.00D-01 BMatC= 1.01D-09 BMatP= 7.15D-09
 IDIUse=1 WtCom= 1.00D+00 WtEn= 0.00D+00
 Coeff-Com:  0.286D-01-0.156D+00 0.113D+00 0.101D+01
 Coeff:      0.286D-01-0.156D+00 0.113D+00 0.101D+01
 Gap=     0.658 Goal=   None    Shift=    0.000
 RMSDP=1.62D-06 MaxDP=1.31D-05 DE=-2.13D-08 OVMax= 2.70D-05

 Cycle   5  Pass 1  IDiag  1:
 E= -150.786766844838     Delta-E=       -0.000000002509 Rises=F Damp=F
 DIIS: error= 1.48D-06 at cycle   5 NSaved=   5.
 NSaved= 5 IEnMin= 5 EnMin= -150.786766844838     IErMin= 5 ErrMin= 1.48D-06
 ErrMax= 1.48D-06  0.00D+00 EMaxC= 1.00D-01 BMatC= 9.53D-11 BMatP= 1.01D-09
 IDIUse=1 WtCom= 1.00D+00 WtEn= 0.00D+00
 Coeff-Com: -0.817D-02 0.499D-01-0.172D+00-0.289D-01 0.116D+01
 Coeff:     -0.817D-02 0.499D-01-0.172D+00-0.289D-01 0.116D+01
 Gap=     0.658 Goal=   None    Shift=    0.000
 RMSDP=6.50D-07 MaxDP=5.78D-06 DE=-2.51D-09 OVMax= 1.09D-05

 Cycle   6  Pass 1  IDiag  1:
 E= -150.786766845095     Delta-E=       -0.000000000257 Rises=F Damp=F
 DIIS: error= 2.01D-07 at cycle   6 NSaved=   6.
 NSaved= 6 IEnMin= 6 EnMin= -150.786766845095     IErMin= 6 ErrMin= 2.01D-07
 ErrMax= 2.01D-07  0.00D+00 EMaxC= 1.00D-01 BMatC= 2.89D-12 BMatP= 9.53D-11
 IDIUse=1 WtCom= 1.00D+00 WtEn= 0.00D+00
 Coeff-Com: -0.180D-02 0.105D-01-0.101D-01-0.570D-01 0.153D-01 0.104D+01
 Coeff:     -0.180D-02 0.105D-01-0.101D-01-0.570D-01 0.153D-01 0.104D+01
 Gap=     0.658 Goal=   None    Shift=    0.000
 RMSDP=9.14D-08 MaxDP=6.97D-07 DE=-2.57D-10 OVMax= 1.35D-06

 Cycle   7  Pass 1  IDiag  1:
 E= -150.786766845103     Delta-E=       -0.000000000007 Rises=F Damp=F
 DIIS: error= 7.21D-08 at cycle   7 NSaved=   7.
 NSaved= 7 IEnMin= 7 EnMin= -150.786766845103     IErMin= 7 ErrMin= 7.21D-08
 ErrMax= 7.21D-08  0.00D+00 EMaxC= 1.00D-01 BMatC= 2.07D-13 BMatP= 2.89D-12
 IDIUse=1 WtCom= 1.00D+00 WtEn= 0.00D+00
 Coeff-Com:  0.701D-03-0.422D-02 0.544D-02 0.228D-01-0.311D-01-0.407D+00
 Coeff-Com:  0.141D+01
 Coeff:      0.701D-03-0.422D-02 0.544D-02 0.228D-01-0.311D-01-0.407D+00
 Coeff:      0.141D+01
 Gap=     0.658 Goal=   None    Shift=    0.000
 RMSDP=2.80D-08 MaxDP=1.99D-07 DE=-7.36D-12 OVMax= 5.65D-07

 Cycle   8  Pass 1  IDiag  1:
 E= -150.786766845103     Delta-E=        0.000000000000 Rises=F Damp=F
 DIIS: error= 3.05D-08 at cycle   8 NSaved=   8.
 NSaved= 8 IEnMin= 8 EnMin= -150.786766845103     IErMin= 8 ErrMin= 3.05D-08
 ErrMax= 3.05D-08  0.00D+00 EMaxC= 1.00D-01 BMatC= 2.93D-14 BMatP= 2.07D-13
 IDIUse=1 WtCom= 1.00D+00 WtEn= 0.00D+00
 Coeff-Com: -0.426D-03 0.258D-02-0.437D-02-0.110D-01 0.273D-01 0.182D+00
 Coeff-Com: -0.100D+01 0.181D+01
 Coeff:     -0.426D-03 0.258D-02-0.437D-02-0.110D-01 0.273D-01 0.182D+00
 Coeff:     -0.100D+01 0.181D+01
 Gap=     0.658 Goal=   None    Shift=    0.000
 RMSDP=1.61D-08 MaxDP=1.13D-07 DE=-4.55D-13 OVMax= 3.76D-07

 Cycle   9  Pass 1  IDiag  1:
 E= -150.786766845103     Delta-E=        0.000000000000 Rises=F Damp=F
 DIIS: error= 7.42D-09 at cycle   9 NSaved=   9.
 NSaved= 9 IEnMin= 8 EnMin= -150.786766845103     IErMin= 9 ErrMin= 7.42D-09
 ErrMax= 7.42D-09  0.00D+00 EMaxC= 1.00D-01 BMatC= 1.67D-15 BMatP= 2.93D-14
 IDIUse=1 WtCom= 1.00D+00 WtEn= 0.00D+00
 Coeff-Com:  0.906D-04-0.551D-03 0.903D-03 0.249D-02-0.559D-02-0.466D-01
 Coeff-Com:  0.279D+00-0.695D+00 0.147D+01
 Coeff:      0.906D-04-0.551D-03 0.903D-03 0.249D-02-0.559D-02-0.466D-01
 Coeff:      0.279D+00-0.695D+00 0.147D+01
 Gap=     0.658 Goal=   None    Shift=    0.000
 RMSDP=3.93D-09 MaxDP=2.68D-08 DE= 1.71D-13 OVMax= 9.13D-08

 SCF Done:  E(RHF) =  -150.786766845     A.U. after    9 cycles
            NFock=  9  Conv=0.39D-08     -V/T= 1.9996
 KE= 1.508409823486D+02 PE=-4.346184781491D+02 EE= 9.493054495045D+01
 Leave Link  502 at Thu Oct  7 12:46:22 2021, MaxMem=    33554432 cpu:         0.1
 (Enter /apps/gaussian/g09/amd-sse4a/l701.exe)
 Compute integral first derivatives.
 ... and contract with generalized density number  0.
 Leave Link  701 at Thu Oct  7 12:46:22 2021, MaxMem=    33554432 cpu:         0.0
 (Enter /apps/gaussian/g09/amd-sse4a/l702.exe)
 L702 exits ... SP integral derivatives will be done elsewhere.
 Leave Link  702 at Thu Oct  7 12:46:22 2021, MaxMem=    33554432 cpu:         0.0
 (Enter /apps/gaussian/g09/amd-sse4a/l703.exe)
 Compute integral first derivatives, UseDBF=F ICtDFT=           0.
 Integral derivatives from FoFJK, PRISM(SPDF).
 Calling FoFJK, ICntrl=      2127 FMM=F ISym2X=0 I1Cent= 0 IOpClX= 0 NMat=1 NMatS=1 NMatT=0.
 FoFJK:  IHMeth= 1 ICntrl=    2127 DoSepK=F KAlg= 0 I1Cent=   0 FoldK=F
 IRaf=         0 NMat=   1 IRICut=       1 DoRegI=T DoRafI=F ISym2E= 0.
 FoFCou: FMM=F IPFlag=           0 FMFlag=      100000 FMFlg1=         800
         NFxFlg=           0 DoJE=F BraDBF=F KetDBF=F FulRan=T
         wScrn=  0.000000 ICntrl=    2127 IOpCl=  0 I1Cent=           0 NGrid=           0
         NMat0=    1 NMatS0=      1 NMatT0=    0 NMatD0=    1 NMtDS0=    0 NMtDT0=    0
 Symmetry not used in FoFCou.
 Leave Link  703 at Thu Oct  7 12:46:22 2021, MaxMem=    33554432 cpu:         0.1
 (Enter /apps/gaussian/g09/amd-sse4a/l716.exe)
 Dipole        = 9.07165021D-08 8.21716728D-08 7.45316246D-01
 ***** Axes restored to original set *****
 -------------------------------------------------------------------
 Center     Atomic                   Forces (Hartrees/Bohr)
 Number     Number              X              Y              Z
 -------------------------------------------------------------------
      1        8           0.000061348   -0.000002539   -0.000016490
      2        1           0.000001969    0.000001239    0.000000517
      3        8          -0.000061249    0.000001609    0.000017068
      4        1          -0.000002068   -0.000000310   -0.000001095
 -------------------------------------------------------------------
 Cartesian Forces:  Max     0.000061348 RMS     0.000025978
 -----------------------------------------------------------------------------------------------
                       Internal Coordinate Forces (Hartree/Bohr or radian)
  Cent   Atom   N1       Length/X         N2         Alpha/Y        N3         Beta/Z          J
 -----------------------------------------------------------------------------------------------
      1  O 
      2  H        1   0.000001(     1)
      3  O        1  -0.000065(     2)      2  -0.000004(     4)
      4  H        3   0.000001(     3)      1  -0.000003(     5)      2   0.000002(     6)     0
 -----------------------------------------------------------------------------------------------
 Internal  Forces:  Max     0.000065268 RMS     0.000026738
 Leave Link  716 at Thu Oct  7 12:46:23 2021, MaxMem=    33554432 cpu:         0.0
 (Enter /apps/gaussian/g09/amd-sse4a/l103.exe)

 GradGradGradGradGradGradGradGradGradGradGradGradGradGradGradGradGradGrad
 Berny optimization.
 Search for a local minimum.
 Step number   7 out of a maximum of   20
 All quantities printed in internal units (Hartrees-Bohrs-Radians)
 Update second derivatives using D2CorN and points    1    2    3    4    5
                                                          6    7
 DE= -2.56D-07 DEPred=-2.36D-07 R= 1.09D+00
 Trust test= 1.09D+00 RLast= 6.42D-03 DXMaxT set to 8.49D-01
 The second derivative matrix:
                          B1        B2        B3        A1        A2
           B1           0.55527
           B2           0.00533   0.56072
           B3           0.00053   0.00533   0.55527
           A1          -0.00246   0.05984  -0.00246   0.21999
           A2          -0.00246   0.05984  -0.00246   0.05999   0.21999
           D1           0.00199   0.00085   0.00199   0.00980   0.00980
                          D1
           D1           0.00876
 ITU=  0  1  1  1  1  1  0
     Eigenvalues ---    0.00801   0.16000   0.25699   0.55473   0.55476
     Eigenvalues ---    0.58550
 RFO step:  Lambda= 0.00000000D+00 EMin= 8.00877911D-03
 Quartic linear search produced a step of  0.07398.
 Variable       Old X    -DE/DX   Delta X   Delta X   Delta X     New X
                                 (Linear)    (Quad)   (Total)
    B1        1.79188   0.00000  -0.00001   0.00001   0.00000   1.79188
    B2        2.63164  -0.00007  -0.00002  -0.00010  -0.00012   2.63152
    B3        1.79188   0.00000  -0.00001   0.00001   0.00000   1.79188
    A1        1.78636   0.00000   0.00001  -0.00001   0.00001   1.78637
    A2        1.78636   0.00000   0.00001   0.00000   0.00001   1.78637
    D1        2.00771   0.00000   0.00047  -0.00023   0.00024   2.00795
         Item               Value     Threshold  Converged?
 Maximum Force            0.000065     0.000450     YES
 RMS     Force            0.000027     0.000300     YES
 Maximum Displacement     0.000239     0.001800     YES
 RMS     Displacement     0.000110     0.001200     YES
 Predicted change in Energy=-4.093132D-09
 Optimization completed.
    -- Stationary point found.
                       ----------------------------
                       !   Optimized Parameters   !
                       ! (Angstroms and Degrees)  !
 ----------------------                            ----------------------
 !      Name          Value   Derivative information (Atomic Units)     !
 ------------------------------------------------------------------------
 !       B1          0.9482   -DE/DX =    0.0                           !
 !       B2          1.3926   -DE/DX =   -0.0001                        !
 !       B3          0.9482   -DE/DX =    0.0                           !
 !       A1        102.351    -DE/DX =    0.0                           !
 !       A2        102.351    -DE/DX =    0.0                           !
 !       D1        115.0331   -DE/DX =    0.0                           !
 ------------------------------------------------------------------------
 Lowest energy point so far.  Saving SCF results.
 GradGradGradGradGradGradGradGradGradGradGradGradGradGradGradGradGradGrad

 Largest change from initial coordinates is atom    4       1.651 Angstoms.
 Leave Link  103 at Thu Oct  7 12:46:23 2021, MaxMem=    33554432 cpu:         0.0
 (Enter /apps/gaussian/g09/amd-sse4a/l202.exe)
 ---------------------------------------------------------------------------------------------------
                            Z-MATRIX (ANGSTROMS AND DEGREES)
   CD    Cent   Atom    N1       Length/X        N2       Alpha/Y        N3        Beta/Z          J
 ---------------------------------------------------------------------------------------------------
      1      1  O 
      2      2  H        1   0.948224(     1)
      3      3  O        1   1.392605(     2)      2  102.351(     4)
      4      4  H        3   0.948224(     3)      1  102.351(     5)      2  115.033(     6)      0
 ---------------------------------------------------------------------------------------------------
                         Z-Matrix orientation:                         
 ---------------------------------------------------------------------
 Center     Atomic      Atomic             Coordinates (Angstroms)
 Number     Number       Type             X           Y           Z
 ---------------------------------------------------------------------
      1          8           0        0.000000    0.000000    0.000000
      2          1           0        0.000000    0.000000    0.948224
      3          8           0        1.360374    0.000000   -0.297878
      4          1           0        1.474667   -0.839266   -0.724138
 ---------------------------------------------------------------------
                    Distance matrix (angstroms):
                    1          2          3          4
     1  O    0.000000
     2  H    0.948224   0.000000
     3  O    1.392605   1.844827   0.000000
     4  H    1.844827   2.382395   0.948224   0.000000
 Stoichiometry    H2O2
 Framework group  C1[X(H2O2)]
 Deg. of freedom     6
 Full point group                 C1      NOp   1
 RotChk:  IX=0 Diff= 7.74D-16
 Largest Abelian subgroup         C1      NOp   1
 Largest concise Abelian subgroup C1      NOp   1
                         Standard orientation:                         
 ---------------------------------------------------------------------
 Center     Atomic      Atomic             Coordinates (Angstroms)
 Number     Number       Type             X           Y           Z
 ---------------------------------------------------------------------
      1          8           0        0.686736    0.115028   -0.055274
      2          1           0        1.015853   -0.622089    0.442189
      3          8           0       -0.686736   -0.115028   -0.055274
      4          1           0       -1.015853    0.622089    0.442189
 ---------------------------------------------------------------------
 Rotational constants (GHZ):    320.9208126     28.4982520     27.5111463
 Leave Link  202 at Thu Oct  7 12:46:23 2021, MaxMem=    33554432 cpu:         0.0
 (Enter /apps/gaussian/g09/amd-sse4a/l601.exe)
 Copying SCF densities to generalized density rwf, IOpCl= 0 IROHF=0.

 **********************************************************************

            Population analysis using the SCF density.

 **********************************************************************

 Orbital symmetries:
       Occupied  (A) (A) (A) (A) (A) (A) (A) (A) (A)
       Virtual   (A) (A) (A) (A) (A) (A) (A) (A) (A) (A) (A) (A)
                 (A) (A) (A) (A) (A) (A) (A) (A) (A) (A) (A) (A)
                 (A) (A) (A) (A) (A)
 The electronic state is 1-A.
 Alpha  occ. eigenvalues --  -20.61668 -20.61634  -1.49839  -1.20367  -0.72457
 Alpha  occ. eigenvalues --   -0.71205  -0.61579  -0.50413  -0.46658
 Alpha virt. eigenvalues --    0.19191   0.20070   0.34772   0.83402   0.84083
 Alpha virt. eigenvalues --    1.11965   1.14237   1.15297   1.21683   1.28060
 Alpha virt. eigenvalues --    1.33091   1.47283   1.51117   1.65388   1.67983
 Alpha virt. eigenvalues --    1.95765   2.01283   2.47950   2.48031   2.71988
 Alpha virt. eigenvalues --    2.83045   2.86685   3.24917   3.31403   3.52040
 Alpha virt. eigenvalues --    3.61000   3.92270   3.96842   4.28426
          Condensed to atoms (all electrons):
               1          2          3          4
     1  O    7.752654   0.359683   0.110010  -0.033903
     2  H    0.359683   0.484513  -0.033903   0.001263
     3  O    0.110010  -0.033903   7.752654   0.359683
     4  H   -0.033903   0.001263   0.359683   0.484513
 Mulliken charges:
               1
     1  O   -0.188443
     2  H    0.188443
     3  O   -0.188443
     4  H    0.188443
 Sum of Mulliken charges =   0.00000
 Mulliken charges with hydrogens summed into heavy atoms:
               1
     1  O    0.000000
     3  O    0.000000
 Electronic spatial extent (au):  <R**2>=             62.8327
 Charge=              0.0000 electrons
 Dipole moment (field-independent basis, Debye):
    X=              0.0000    Y=              0.0000    Z=              1.8944  Tot=              1.8944
 Quadrupole moment (field-independent basis, Debye-Ang):
   XX=            -10.0051   YY=            -10.2218   ZZ=            -11.2807
   XY=             -3.1932   XZ=              0.0000   YZ=              0.0000
 Traceless Quadrupole moment (field-independent basis, Debye-Ang):
   XX=              0.4974   YY=              0.2807   ZZ=             -0.7782
   XY=             -3.1932   XZ=              0.0000   YZ=              0.0000
 Octapole moment (field-independent basis, Debye-Ang**2):
  XXX=              0.0000  YYY=              0.0000  ZZZ=              1.1732  XYY=              0.0000
  XXY=              0.0000  XXZ=              2.4923  XZZ=              0.0000  YZZ=              0.0000
  YYZ=              0.9331  XYZ=             -1.3901
 Hexadecapole moment (field-independent basis, Debye-Ang**3):
 XXXX=            -38.3006 YYYY=             -9.6278 ZZZZ=             -9.0579 XXXY=             -4.1366
 XXXZ=              0.0000 YYYX=             -2.6256 YYYZ=              0.0000 ZZZX=              0.0000
 ZZZY=              0.0000 XXYY=             -7.5748 XXZZ=             -8.4388 YYZZ=             -2.8321
 XXYZ=              0.0000 YYXZ=              0.0000 ZZXY=             -1.0651
 N-N= 3.806018400488D+01 E-N=-4.346184781431D+02  KE= 1.508409823486D+02
 No NMR shielding tensors so no spin-rotation constants.
 Leave Link  601 at Thu Oct  7 12:46:23 2021, MaxMem=    33554432 cpu:         0.1
 (Enter /apps/gaussian/g09/amd-sse4a/l9999.exe)
 1\1\GINC-C0700A-S1\POpt\RHF\CC-pVDZ\H2O2\LE.CHEN\07-Oct-2021\1\\#P hf/
 cc-pvdz geom=connectivity opt=z-matrix\\Title Card Required\\0,1\O\H,1
 ,B1\O,1,B2,2,A1\H,3,B3,1,A2,2,D1,0\\B1=0.94822406\B2=1.3926052\B3=0.94
 822406\A1=102.35097651\A2=102.35096478\D1=115.03314589\\Version=AS64L-
 G09RevD.01\State=1-A\HF=-150.7867668\RMSD=3.930e-09\RMSF=2.598e-05\Dip
 ole=0.0856188,-0.6287092,0.3910122\Quadrupole=-1.1654767,-0.1270875,1.
 2925642,-1.039611,-1.5430774,0.9535671\PG=C01 [X(H2O2)]\\@


 KNIGHT- SIRE, I'VE JUST RETURNED FROM THE FRONT
 KING-   HOW GOES THE BATTLE                    
 KNIGHT- THE SITUATION IS QUITE FLUID           
 KING-   WHAT DOES *THAT* MEAN                  
 KNIGHT- WE'RE UP THE CREEK                     
                THE WIZARD OF ID                
 Job cpu time:       0 days  0 hours  0 minutes  4.4 seconds.
 File lengths (MBytes):  RWF=      5 Int=      0 D2E=      0 Chk=      1 Scr=      1
 Normal termination of Gaussian 09 at Thu Oct  7 12:46:23 2021.
