 Entering Gaussian System, Link 0=g09
 Initial command:
 /apps/gaussian/g09/amd-sse4a/l1.exe "/blue/chm6586/le.chen/hw3/q2/Gau-77035.inp" -scrdir="/blue/chm6586/le.chen/hw3/q2/"
 Entering Link 1 = /apps/gaussian/g09/amd-sse4a/l1.exe PID=     77036.
  
 Copyright (c) 1988,1990,1992,1993,1995,1998,2003,2009,2013,
            Gaussian, Inc.  All Rights Reserved.
  
 This is part of the Gaussian(R) 09 program.  It is based on
 the Gaussian(R) 03 system (copyright 2003, Gaussian, Inc.),
 the Gaussian(R) 98 system (copyright 1998, Gaussian, Inc.),
 the Gaussian(R) 94 system (copyright 1995, Gaussian, Inc.),
 the Gaussian 92(TM) system (copyright 1992, Gaussian, Inc.),
 the Gaussian 90(TM) system (copyright 1990, Gaussian, Inc.),
 the Gaussian 88(TM) system (copyright 1988, Gaussian, Inc.),
 the Gaussian 86(TM) system (copyright 1986, Carnegie Mellon
 University), and the Gaussian 82(TM) system (copyright 1983,
 Carnegie Mellon University). Gaussian is a federally registered
 trademark of Gaussian, Inc.
  
 This software contains proprietary and confidential information,
 including trade secrets, belonging to Gaussian, Inc.
  
 This software is provided under written license and may be
 used, copied, transmitted, or stored only in accord with that
 written license.
  
 The following legend is applicable only to US Government
 contracts under FAR:
  
                    RESTRICTED RIGHTS LEGEND
  
 Use, reproduction and disclosure by the US Government is
 subject to restrictions as set forth in subparagraphs (a)
 and (c) of the Commercial Computer Software - Restricted
 Rights clause in FAR 52.227-19.
  
 Gaussian, Inc.
 340 Quinnipiac St., Bldg. 40, Wallingford CT 06492
  
  
 ---------------------------------------------------------------
 Warning -- This program may not be used in any manner that
 competes with the business of Gaussian, Inc. or will provide
 assistance to any competitor of Gaussian, Inc.  The licensee
 of this program is prohibited from giving any competitor of
 Gaussian, Inc. access to this program.  By using this program,
 the user acknowledges that Gaussian, Inc. is engaged in the
 business of creating and licensing software in the field of
 computational chemistry and represents and warrants to the
 licensee that it is not a competitor of Gaussian, Inc. and that
 it will not use this program in any manner prohibited above.
 ---------------------------------------------------------------
  

 Cite this work as:
 Gaussian 09, Revision D.01,
 M. J. Frisch, G. W. Trucks, H. B. Schlegel, G. E. Scuseria, 
 M. A. Robb, J. R. Cheeseman, G. Scalmani, V. Barone, B. Mennucci, 
 G. A. Petersson, H. Nakatsuji, M. Caricato, X. Li, H. P. Hratchian, 
 A. F. Izmaylov, J. Bloino, G. Zheng, J. L. Sonnenberg, M. Hada, 
 M. Ehara, K. Toyota, R. Fukuda, J. Hasegawa, M. Ishida, T. Nakajima, 
 Y. Honda, O. Kitao, H. Nakai, T. Vreven, J. A. Montgomery, Jr., 
 J. E. Peralta, F. Ogliaro, M. Bearpark, J. J. Heyd, E. Brothers, 
 K. N. Kudin, V. N. Staroverov, T. Keith, R. Kobayashi, J. Normand, 
 K. Raghavachari, A. Rendell, J. C. Burant, S. S. Iyengar, J. Tomasi, 
 M. Cossi, N. Rega, J. M. Millam, M. Klene, J. E. Knox, J. B. Cross, 
 V. Bakken, C. Adamo, J. Jaramillo, R. Gomperts, R. E. Stratmann, 
 O. Yazyev, A. J. Austin, R. Cammi, C. Pomelli, J. W. Ochterski, 
 R. L. Martin, K. Morokuma, V. G. Zakrzewski, G. A. Voth, 
 P. Salvador, J. J. Dannenberg, S. Dapprich, A. D. Daniels, 
 O. Farkas, J. B. Foresman, J. V. Ortiz, J. Cioslowski, 
 and D. J. Fox, Gaussian, Inc., Wallingford CT, 2013.
 
 ******************************************
 Gaussian 09:  AS64L-G09RevD.01 24-Apr-2013
                 7-Oct-2021 
 ******************************************
 %chk=peroxide.chk
 ---------------------------------
 # scan hf/3-21g geom=connectivity
 ---------------------------------
 1/38=1,57=2,60=1/1,8;
 2/12=2,17=6,18=5,29=3,40=1/2;
 3/5=5,11=9,16=1,25=1,30=1/1,2,3;
 4//1;
 5/5=2,38=5/2;
 6/7=2,8=2,9=2,10=2,18=1,28=1/1;
 1/60=1/8(1);
 99/9=1/99;
 2/29=3/2;
 3/5=5,11=9,16=1,25=1,30=1/1,2,3;
 4/5=5,16=3,69=1/1;
 5/5=2,38=5/2;
 1/60=1/8(-4);
 99/9=1/99;
 -------------------
 Title Card Required
 -------------------
 Symbolic Z-matrix:
 Charge =  0 Multiplicity = 1
 O
 H                    1    B1
 O                    1    B2       2    A1
 H                    3    B3       1    A2       2    D1       0
       Variables:
  B1                    0.96                     
  B2                    1.32                     
  B3                    0.96                     
  A1                  109.5                      
  A2                  109.5                      
  D1                   90.     Scan 10    5.     
 
 Scan the potential surface.
 Variable   Value     No. Steps Step-Size
 -------- ----------- --------- ---------
     6      90.000000      10      5.0000
 A total of     11 points will be computed.
 ---------------------------------------------------------------------------------------------------
                            Z-MATRIX (ANGSTROMS AND DEGREES)
   CD    Cent   Atom    N1       Length/X        N2       Alpha/Y        N3        Beta/Z          J
 ---------------------------------------------------------------------------------------------------
      1      1  O 
      2      2  H        1   0.960000(     1)
      3      3  O        1   1.320000(     2)      2  109.500(     4)
      4      4  H        3   0.960000(     3)      1  109.500(     5)      2   90.000(     6)      0
 ---------------------------------------------------------------------------------------------------
                         Z-Matrix orientation:                         
 ---------------------------------------------------------------------
 Center     Atomic      Atomic             Coordinates (Angstroms)
 Number     Number       Type             X           Y           Z
 ---------------------------------------------------------------------
      1          8           0        0.000000    0.000000    0.000000
      2          1           0        0.000000    0.000000    0.960000
      3          8           0        1.244287    0.000000   -0.440625
      4          1           0        1.546361   -0.904936   -0.547595
 ---------------------------------------------------------------------
                    Distance matrix (angstroms):
                    1          2          3          4
     1  O    0.000000
     2  H    0.960000   0.000000
     3  O    1.320000   1.873499   0.000000
     4  H    1.873499   2.341577   0.960000   0.000000
 Stoichiometry    H2O2
 Framework group  C2[X(H2O2)]
 Deg. of freedom     4
 Full point group                 C2      NOp   2
 Largest Abelian subgroup         C2      NOp   2
 Largest concise Abelian subgroup C2      NOp   2
                         Standard orientation:                         
 ---------------------------------------------------------------------
 Center     Atomic      Atomic             Coordinates (Angstroms)
 Number     Number       Type             X           Y           Z
 ---------------------------------------------------------------------
      1          8           0        0.000000    0.660000   -0.071098
      2          1           0        0.639886    0.980455    0.568788
      3          8           0        0.000000   -0.660000   -0.071098
      4          1           0       -0.639886   -0.980455    0.568788
 ---------------------------------------------------------------------
 Rotational constants (GHZ):    337.7802211     30.2663605     30.1640838
 Standard basis: 3-21G (6D, 7F)
 There are    11 symmetry adapted cartesian basis functions of A   symmetry.
 There are    11 symmetry adapted cartesian basis functions of B   symmetry.
 There are    11 symmetry adapted basis functions of A   symmetry.
 There are    11 symmetry adapted basis functions of B   symmetry.
    22 basis functions,    36 primitive gaussians,    22 cartesian basis functions
     9 alpha electrons        9 beta electrons
       nuclear repulsion energy        39.2219510357 Hartrees.
 NAtoms=    4 NActive=    4 NUniq=    2 SFac= 4.00D+00 NAtFMM=   60 NAOKFM=F Big=F
 Integral buffers will be    131072 words long.
 Raffenetti 1 integral format.
 Two-electron integral symmetry is turned on.
 One-electron integrals computed using PRISM.
 NBasis=    22 RedAO= T EigKep=  4.34D-02  NBF=    11    11
 NBsUse=    22 1.00D-06 EigRej= -1.00D+00 NBFU=    11    11
 ExpMin= 1.83D-01 ExpMax= 3.22D+02 ExpMxC= 3.22D+02 IAcc=1 IRadAn=         1 AccDes= 0.00D+00
 Harris functional with IExCor=  205 and IRadAn=       1 diagonalized for initial guess.
 HarFok:  IExCor=  205 AccDes= 0.00D+00 IRadAn=         1 IDoV= 1 UseB2=F ITyADJ=14
 ICtDFT=  3500011 ScaDFX=  1.000000  1.000000  1.000000  1.000000
 FoFCou: FMM=F IPFlag=           0 FMFlag=      100000 FMFlg1=           0
         NFxFlg=           0 DoJE=T BraDBF=F KetDBF=T FulRan=T
         wScrn=  0.000000 ICntrl=     500 IOpCl=  0 I1Cent=   200000004 NGrid=           0
         NMat0=    1 NMatS0=      1 NMatT0=    0 NMatD0=    1 NMtDS0=    0 NMtDT0=    0
 Petite list used in FoFCou.
 Initial guess orbital symmetries:
       Occupied  (B) (A) (A) (B) (A) (B) (A) (B) (A)
       Virtual   (B) (A) (B) (A) (B) (B) (A) (B) (A) (B) (A) (A)
                 (B)
 The electronic state of the initial guess is 1-A.
 Keep R1 ints in memory in symmetry-blocked form, NReq=857126.
 Requested convergence on RMS density matrix=1.00D-08 within 128 cycles.
 Requested convergence on MAX density matrix=1.00D-06.
 Requested convergence on             energy=1.00D-06.
 No special actions if energy rises.
 SCF Done:  E(RHF) =  -149.922309884     A.U. after   10 cycles
            NFock= 10  Conv=0.98D-08     -V/T= 2.0009

 **********************************************************************

            Population analysis using the SCF density.

 **********************************************************************

 Orbital symmetries:
       Occupied  (A) (B) (A) (B) (A) (B) (A) (B) (A)
       Virtual   (B) (A) (B) (A) (B) (B) (A) (B) (A) (B) (A) (A)
                 (B)
 The electronic state is 1-A.
 Alpha  occ. eigenvalues --  -20.50286 -20.50276  -1.52989  -1.17974  -0.75372
 Alpha  occ. eigenvalues --   -0.68400  -0.61162  -0.45967  -0.45398
 Alpha virt. eigenvalues --    0.26576   0.26770   0.45711   1.21079   1.25075
 Alpha virt. eigenvalues --    1.71610   1.74311   1.84366   1.94590   1.99767
 Alpha virt. eigenvalues --    2.06812   2.96825   3.35804
          Condensed to atoms (all electrons):
               1          2          3          4
     1  O    8.123647   0.253318   0.062450  -0.037244
     2  H    0.253318   0.382044  -0.037244  -0.000288
     3  O    0.062450  -0.037244   8.123647   0.253318
     4  H   -0.037244  -0.000288   0.253318   0.382044
 Mulliken charges:
               1
     1  O   -0.402170
     2  H    0.402170
     3  O   -0.402170
     4  H    0.402170
 Sum of Mulliken charges =   0.00000
 Mulliken charges with hydrogens summed into heavy atoms:
               1
     1  O    0.000000
     3  O    0.000000
 Electronic spatial extent (au):  <R**2>=             60.2303
 Charge=              0.0000 electrons
 Dipole moment (field-independent basis, Debye):
    X=              0.0000    Y=              0.0000    Z=              2.8494  Tot=              2.8494
 Quadrupole moment (field-independent basis, Debye-Ang):
   XX=            -10.0301   YY=            -10.3944   ZZ=            -10.4466
   XY=              2.8772   XZ=              0.0000   YZ=              0.0000
 Traceless Quadrupole moment (field-independent basis, Debye-Ang):
   XX=              0.2602   YY=             -0.1040   ZZ=             -0.1562
   XY=              2.8772   XZ=              0.0000   YZ=              0.0000
 Octapole moment (field-independent basis, Debye-Ang**2):
  XXX=              0.0000  YYY=              0.0000  ZZZ=              1.7418  XYY=              0.0000
  XXY=              0.0000  XXZ=              1.2366  XZZ=              0.0000  YZZ=              0.0000
  YYZ=              3.0466  XYZ=              1.5846
 Hexadecapole moment (field-independent basis, Debye-Ang**3):
 XXXX=             -8.1791 YYYY=            -35.1828 ZZZZ=             -8.3850 XXXY=             -0.3450
 XXXZ=              0.0000 YYYX=              1.4392 YYYZ=              0.0000 ZZZX=              0.0000
 ZZZY=              0.0000 XXYY=             -6.7881 XXZZ=             -2.3621 YYZZ=             -7.1890
 XXYZ=              0.0000 YYXZ=              0.0000 ZZXY=              0.3227
 N-N= 3.922195103566D+01 E-N=-4.347220439275D+02  KE= 1.497899787341D+02
 Symmetry A    KE= 7.675495767679D+01
 Symmetry B    KE= 7.303502105731D+01
 Variable Step   Value    
 -------- ---- -----------
     6       1    1.658063
 ---------------------------------------------------------------------------------------------------
                            Z-MATRIX (ANGSTROMS AND DEGREES)
   CD    Cent   Atom    N1       Length/X        N2       Alpha/Y        N3        Beta/Z          J
 ---------------------------------------------------------------------------------------------------
      1      1  O 
      2      2  H        1   0.960000(     1)
      3      3  O        1   1.320000(     2)      2  109.500(     4)
      4      4  H        3   0.960000(     3)      1  109.500(     5)      2   95.000(     6)      0
 ---------------------------------------------------------------------------------------------------
                         Z-Matrix orientation:                         
 ---------------------------------------------------------------------
 Center     Atomic      Atomic             Coordinates (Angstroms)
 Number     Number       Type             X           Y           Z
 ---------------------------------------------------------------------
      1          8           0        0.000000    0.000000    0.000000
      2          1           0        0.000000    0.000000    0.960000
      3          8           0        1.244287    0.000000   -0.440625
      4          1           0        1.520033   -0.901492   -0.621941
 ---------------------------------------------------------------------
                    Distance matrix (angstroms):
                    1          2          3          4
     1  O    0.000000
     2  H    0.960000   0.000000
     3  O    1.320000   1.873499   0.000000
     4  H    1.873499   2.371862   0.960000   0.000000
 Stoichiometry    H2O2
 Framework group  C2[X(H2O2)]
 Deg. of freedom     4
 Full point group                 C2      NOp   2
 Largest Abelian subgroup         C2      NOp   2
 Largest concise Abelian subgroup C2      NOp   2
                         Standard orientation:                         
 ---------------------------------------------------------------------
 Center     Atomic      Atomic             Coordinates (Angstroms)
 Number     Number       Type             X           Y           Z
 ---------------------------------------------------------------------
      1          8           0        0.000000    0.660000   -0.067930
      2          1           0        0.667189    0.980455    0.543436
      3          8           0        0.000000   -0.660000   -0.067930
      4          1           0       -0.667189   -0.980455    0.543436
 ---------------------------------------------------------------------
 Rotational constants (GHZ):    339.0055336     30.2688609     30.1365370
 Standard basis: 3-21G (6D, 7F)
 There are    11 symmetry adapted cartesian basis functions of A   symmetry.
 There are    11 symmetry adapted cartesian basis functions of B   symmetry.
 There are    11 symmetry adapted basis functions of A   symmetry.
 There are    11 symmetry adapted basis functions of B   symmetry.
    22 basis functions,    36 primitive gaussians,    22 cartesian basis functions
     9 alpha electrons        9 beta electrons
       nuclear repulsion energy        39.2190654959 Hartrees.
 NAtoms=    4 NActive=    4 NUniq=    2 SFac= 4.00D+00 NAtFMM=   60 NAOKFM=F Big=F
 Integral buffers will be    131072 words long.
 Raffenetti 1 integral format.
 Two-electron integral symmetry is turned on.
 One-electron integrals computed using PRISM.
 NBasis=    22 RedAO= T EigKep=  4.34D-02  NBF=    11    11
 NBsUse=    22 1.00D-06 EigRej= -1.00D+00 NBFU=    11    11
 Initial guess from the checkpoint file:  "peroxide.chk"
 B after Tr=     0.000000    0.000000    0.000000
         Rot=    0.999996    0.000000    0.000000    0.002747 Ang=   0.31 deg.
 Initial guess orbital symmetries:
       Occupied  (A) (B) (A) (B) (A) (B) (A) (B) (A)
       Virtual   (A) (A) (A) (A) (A) (A) (B) (B) (B) (B) (B) (B)
                 (B)
 ExpMin= 1.83D-01 ExpMax= 3.22D+02 ExpMxC= 3.22D+02 IAcc=1 IRadAn=         1 AccDes= 0.00D+00
 Harris functional with IExCor=  205 and IRadAn=       1 diagonalized for initial guess.
 HarFok:  IExCor=  205 AccDes= 0.00D+00 IRadAn=         1 IDoV= 1 UseB2=F ITyADJ=14
 ICtDFT=  3500011 ScaDFX=  1.000000  1.000000  1.000000  1.000000
 FoFCou: FMM=F IPFlag=           0 FMFlag=      100000 FMFlg1=           0
         NFxFlg=           0 DoJE=T BraDBF=F KetDBF=T FulRan=T
         wScrn=  0.000000 ICntrl=     500 IOpCl=  0 I1Cent=   200000004 NGrid=           0
         NMat0=    1 NMatS0=      1 NMatT0=    0 NMatD0=    1 NMtDS0=    0 NMtDT0=    0
 Petite list used in FoFCou.
 Keep R1 ints in memory in symmetry-blocked form, NReq=857126.
 Requested convergence on RMS density matrix=1.00D-08 within 128 cycles.
 Requested convergence on MAX density matrix=1.00D-06.
 Requested convergence on             energy=1.00D-06.
 No special actions if energy rises.
 SCF Done:  E(RHF) =  -149.922748164     A.U. after   10 cycles
            NFock= 10  Conv=0.34D-08     -V/T= 2.0009
 Variable Step   Value    
 -------- ---- -----------
     6       2    1.745329
 ---------------------------------------------------------------------------------------------------
                            Z-MATRIX (ANGSTROMS AND DEGREES)
   CD    Cent   Atom    N1       Length/X        N2       Alpha/Y        N3        Beta/Z          J
 ---------------------------------------------------------------------------------------------------
      1      1  O 
      2      2  H        1   0.960000(     1)
      3      3  O        1   1.320000(     2)      2  109.500(     4)
      4      4  H        3   0.960000(     3)      1  109.500(     5)      2  100.000(     6)      0
 ---------------------------------------------------------------------------------------------------
                         Z-Matrix orientation:                         
 ---------------------------------------------------------------------
 Center     Atomic      Atomic             Coordinates (Angstroms)
 Number     Number       Type             X           Y           Z
 ---------------------------------------------------------------------
      1          8           0        0.000000    0.000000    0.000000
      2          1           0        0.000000    0.000000    0.960000
      3          8           0        1.244287    0.000000   -0.440625
      4          1           0        1.493906   -0.891188   -0.695722
 ---------------------------------------------------------------------
                    Distance matrix (angstroms):
                    1          2          3          4
     1  O    0.000000
     2  H    0.960000   0.000000
     3  O    1.320000   1.873499   0.000000
     4  H    1.873499   2.401538   0.960000   0.000000
 Stoichiometry    H2O2
 Framework group  C2[X(H2O2)]
 Deg. of freedom     4
 Full point group                 C2      NOp   2
 Largest Abelian subgroup         C2      NOp   2
 Largest concise Abelian subgroup C2      NOp   2
                         Standard orientation:                         
 ---------------------------------------------------------------------
 Center     Atomic      Atomic             Coordinates (Angstroms)
 Number     Number       Type             X           Y           Z
 ---------------------------------------------------------------------
      1          8           0        0.000000    0.660000   -0.064631
      2          1           0        0.693221    0.980455    0.517050
      3          8           0        0.000000   -0.660000   -0.064631
      4          1           0       -0.693221   -0.980455    0.517050
 ---------------------------------------------------------------------
 Rotational constants (GHZ):    340.2483378     30.3734194     30.0087980
 Standard basis: 3-21G (6D, 7F)
 There are    11 symmetry adapted cartesian basis functions of A   symmetry.
 There are    11 symmetry adapted cartesian basis functions of B   symmetry.
 There are    11 symmetry adapted basis functions of A   symmetry.
 There are    11 symmetry adapted basis functions of B   symmetry.
    22 basis functions,    36 primitive gaussians,    22 cartesian basis functions
     9 alpha electrons        9 beta electrons
       nuclear repulsion energy        39.2163084874 Hartrees.
 NAtoms=    4 NActive=    4 NUniq=    2 SFac= 4.00D+00 NAtFMM=   60 NAOKFM=F Big=F
 Integral buffers will be    131072 words long.
 Raffenetti 1 integral format.
 Two-electron integral symmetry is turned on.
 One-electron integrals computed using PRISM.
 NBasis=    22 RedAO= T EigKep=  4.35D-02  NBF=    11    11
 NBsUse=    22 1.00D-06 EigRej= -1.00D+00 NBFU=    11    11
 Initial guess from the checkpoint file:  "peroxide.chk"
 B after Tr=     0.000000    0.000000    0.000000
         Rot=    0.999997    0.000000    0.000000    0.002600 Ang=   0.30 deg.
 Initial guess orbital symmetries:
       Occupied  (A) (B) (A) (B) (A) (B) (A) (A) (B)
       Virtual   (A) (A) (A) (A) (A) (A) (B) (B) (B) (B) (B) (B)
                 (B)
 ExpMin= 1.83D-01 ExpMax= 3.22D+02 ExpMxC= 3.22D+02 IAcc=1 IRadAn=         1 AccDes= 0.00D+00
 Harris functional with IExCor=  205 and IRadAn=       1 diagonalized for initial guess.
 HarFok:  IExCor=  205 AccDes= 0.00D+00 IRadAn=         1 IDoV= 1 UseB2=F ITyADJ=14
 ICtDFT=  3500011 ScaDFX=  1.000000  1.000000  1.000000  1.000000
 FoFCou: FMM=F IPFlag=           0 FMFlag=      100000 FMFlg1=           0
         NFxFlg=           0 DoJE=T BraDBF=F KetDBF=T FulRan=T
         wScrn=  0.000000 ICntrl=     500 IOpCl=  0 I1Cent=   200000004 NGrid=           0
         NMat0=    1 NMatS0=      1 NMatT0=    0 NMatD0=    1 NMtDS0=    0 NMtDT0=    0
 Petite list used in FoFCou.
 Keep R1 ints in memory in symmetry-blocked form, NReq=857126.
 Requested convergence on RMS density matrix=1.00D-08 within 128 cycles.
 Requested convergence on MAX density matrix=1.00D-06.
 Requested convergence on             energy=1.00D-06.
 No special actions if energy rises.
 SCF Done:  E(RHF) =  -149.923057052     A.U. after   10 cycles
            NFock= 10  Conv=0.29D-08     -V/T= 2.0009
 Variable Step   Value    
 -------- ---- -----------
     6       3    1.832596
 ---------------------------------------------------------------------------------------------------
                            Z-MATRIX (ANGSTROMS AND DEGREES)
   CD    Cent   Atom    N1       Length/X        N2       Alpha/Y        N3        Beta/Z          J
 ---------------------------------------------------------------------------------------------------
      1      1  O 
      2      2  H        1   0.960000(     1)
      3      3  O        1   1.320000(     2)      2  109.500(     4)
      4      4  H        3   0.960000(     3)      1  109.500(     5)      2  105.000(     6)      0
 ---------------------------------------------------------------------------------------------------
                         Z-Matrix orientation:                         
 ---------------------------------------------------------------------
 Center     Atomic      Atomic             Coordinates (Angstroms)
 Number     Number       Type             X           Y           Z
 ---------------------------------------------------------------------
      1          8           0        0.000000    0.000000    0.000000
      2          1           0        0.000000    0.000000    0.960000
      3          8           0        1.244287    0.000000   -0.440625
      4          1           0        1.468178   -0.874101   -0.768375
 ---------------------------------------------------------------------
                    Distance matrix (angstroms):
                    1          2          3          4
     1  O    0.000000
     2  H    0.960000   0.000000
     3  O    1.320000   1.873499   0.000000
     4  H    1.873499   2.430408   0.960000   0.000000
 Stoichiometry    H2O2
 Framework group  C2[X(H2O2)]
 Deg. of freedom     4
 Full point group                 C2      NOp   2
 Largest Abelian subgroup         C2      NOp   2
 Largest concise Abelian subgroup C2      NOp   2
                         Standard orientation:                         
 ---------------------------------------------------------------------
 Center     Atomic      Atomic             Coordinates (Angstroms)
 Number     Number       Type             X           Y           Z
 ---------------------------------------------------------------------
      1          8           0        0.000000    0.660000   -0.061210
      2          1           0        0.717934    0.980455    0.489680
      3          8           0        0.000000   -0.660000   -0.061210
      4          1           0       -0.717934   -0.980455    0.489680
 ---------------------------------------------------------------------
 Rotational constants (GHZ):    341.4989196     30.4769465     29.8840646
 Standard basis: 3-21G (6D, 7F)
 There are    11 symmetry adapted cartesian basis functions of A   symmetry.
 There are    11 symmetry adapted cartesian basis functions of B   symmetry.
 There are    11 symmetry adapted basis functions of A   symmetry.
 There are    11 symmetry adapted basis functions of B   symmetry.
    22 basis functions,    36 primitive gaussians,    22 cartesian basis functions
     9 alpha electrons        9 beta electrons
       nuclear repulsion energy        39.2136911057 Hartrees.
 NAtoms=    4 NActive=    4 NUniq=    2 SFac= 4.00D+00 NAtFMM=   60 NAOKFM=F Big=F
 Integral buffers will be    131072 words long.
 Raffenetti 1 integral format.
 Two-electron integral symmetry is turned on.
 One-electron integrals computed using PRISM.
 NBasis=    22 RedAO= T EigKep=  4.35D-02  NBF=    11    11
 NBsUse=    22 1.00D-06 EigRej= -1.00D+00 NBFU=    11    11
 Initial guess from the checkpoint file:  "peroxide.chk"
 B after Tr=     0.000000    0.000000    0.000000
         Rot=    0.999997    0.000000    0.000000    0.002451 Ang=   0.28 deg.
 Initial guess orbital symmetries:
       Occupied  (A) (B) (A) (B) (A) (B) (A) (A) (B)
       Virtual   (A) (A) (A) (A) (A) (A) (B) (B) (B) (B) (B) (B)
                 (B)
 ExpMin= 1.83D-01 ExpMax= 3.22D+02 ExpMxC= 3.22D+02 IAcc=1 IRadAn=         1 AccDes= 0.00D+00
 Harris functional with IExCor=  205 and IRadAn=       1 diagonalized for initial guess.
 HarFok:  IExCor=  205 AccDes= 0.00D+00 IRadAn=         1 IDoV= 1 UseB2=F ITyADJ=14
 ICtDFT=  3500011 ScaDFX=  1.000000  1.000000  1.000000  1.000000
 FoFCou: FMM=F IPFlag=           0 FMFlag=      100000 FMFlg1=           0
         NFxFlg=           0 DoJE=T BraDBF=F KetDBF=T FulRan=T
         wScrn=  0.000000 ICntrl=     500 IOpCl=  0 I1Cent=   200000004 NGrid=           0
         NMat0=    1 NMatS0=      1 NMatT0=    0 NMatD0=    1 NMtDS0=    0 NMtDT0=    0
 Petite list used in FoFCou.
 Keep R1 ints in memory in symmetry-blocked form, NReq=857126.
 Requested convergence on RMS density matrix=1.00D-08 within 128 cycles.
 Requested convergence on MAX density matrix=1.00D-06.
 Requested convergence on             energy=1.00D-06.
 No special actions if energy rises.
 SCF Done:  E(RHF) =  -149.923242539     A.U. after   10 cycles
            NFock= 10  Conv=0.25D-08     -V/T= 2.0009
 Variable Step   Value    
 -------- ---- -----------
     6       4    1.919862
 ---------------------------------------------------------------------------------------------------
                            Z-MATRIX (ANGSTROMS AND DEGREES)
   CD    Cent   Atom    N1       Length/X        N2       Alpha/Y        N3        Beta/Z          J
 ---------------------------------------------------------------------------------------------------
      1      1  O 
      2      2  H        1   0.960000(     1)
      3      3  O        1   1.320000(     2)      2  109.500(     4)
      4      4  H        3   0.960000(     3)      1  109.500(     5)      2  110.000(     6)      0
 ---------------------------------------------------------------------------------------------------
                         Z-Matrix orientation:                         
 ---------------------------------------------------------------------
 Center     Atomic      Atomic             Coordinates (Angstroms)
 Number     Number       Type             X           Y           Z
 ---------------------------------------------------------------------
      1          8           0        0.000000    0.000000    0.000000
      2          1           0        0.000000    0.000000    0.960000
      3          8           0        1.244287    0.000000   -0.440625
      4          1           0        1.443045   -0.850362   -0.839348
 ---------------------------------------------------------------------
                    Distance matrix (angstroms):
                    1          2          3          4
     1  O    0.000000
     2  H    0.960000   0.000000
     3  O    1.320000   1.873499   0.000000
     4  H    1.873499   2.458282   0.960000   0.000000
 Stoichiometry    H2O2
 Framework group  C2[X(H2O2)]
 Deg. of freedom     4
 Full point group                 C2      NOp   2
 Largest Abelian subgroup         C2      NOp   2
 Largest concise Abelian subgroup C2      NOp   2
                         Standard orientation:                         
 ---------------------------------------------------------------------
 Center     Atomic      Atomic             Coordinates (Angstroms)
 Number     Number       Type             X           Y           Z
 ---------------------------------------------------------------------
      1          8           0        0.000000    0.660000   -0.057672
      2          1           0        0.741280    0.980455    0.461378
      3          8           0        0.000000   -0.660000   -0.057672
      4          1           0       -0.741280   -0.980455    0.461378
 ---------------------------------------------------------------------
 Rotational constants (GHZ):    342.7468712     30.5786246     29.7632131
 Standard basis: 3-21G (6D, 7F)
 There are    11 symmetry adapted cartesian basis functions of A   symmetry.
 There are    11 symmetry adapted cartesian basis functions of B   symmetry.
 There are    11 symmetry adapted basis functions of A   symmetry.
 There are    11 symmetry adapted basis functions of B   symmetry.
    22 basis functions,    36 primitive gaussians,    22 cartesian basis functions
     9 alpha electrons        9 beta electrons
       nuclear repulsion energy        39.2112222679 Hartrees.
 NAtoms=    4 NActive=    4 NUniq=    2 SFac= 4.00D+00 NAtFMM=   60 NAOKFM=F Big=F
 Integral buffers will be    131072 words long.
 Raffenetti 1 integral format.
 Two-electron integral symmetry is turned on.
 One-electron integrals computed using PRISM.
 NBasis=    22 RedAO= T EigKep=  4.36D-02  NBF=    11    11
 NBsUse=    22 1.00D-06 EigRej= -1.00D+00 NBFU=    11    11
 Initial guess from the checkpoint file:  "peroxide.chk"
 B after Tr=     0.000000    0.000000    0.000000
         Rot=    0.999997    0.000000    0.000000    0.002299 Ang=   0.26 deg.
 Initial guess orbital symmetries:
       Occupied  (A) (B) (A) (B) (A) (B) (A) (A) (B)
       Virtual   (A) (A) (A) (A) (A) (A) (B) (B) (B) (B) (B) (B)
                 (B)
 ExpMin= 1.83D-01 ExpMax= 3.22D+02 ExpMxC= 3.22D+02 IAcc=1 IRadAn=         1 AccDes= 0.00D+00
 Harris functional with IExCor=  205 and IRadAn=       1 diagonalized for initial guess.
 HarFok:  IExCor=  205 AccDes= 0.00D+00 IRadAn=         1 IDoV= 1 UseB2=F ITyADJ=14
 ICtDFT=  3500011 ScaDFX=  1.000000  1.000000  1.000000  1.000000
 FoFCou: FMM=F IPFlag=           0 FMFlag=      100000 FMFlg1=           0
         NFxFlg=           0 DoJE=T BraDBF=F KetDBF=T FulRan=T
         wScrn=  0.000000 ICntrl=     500 IOpCl=  0 I1Cent=   200000004 NGrid=           0
         NMat0=    1 NMatS0=      1 NMatT0=    0 NMatD0=    1 NMtDS0=    0 NMtDT0=    0
 Petite list used in FoFCou.
 Keep R1 ints in memory in symmetry-blocked form, NReq=857126.
 Requested convergence on RMS density matrix=1.00D-08 within 128 cycles.
 Requested convergence on MAX density matrix=1.00D-06.
 Requested convergence on             energy=1.00D-06.
 No special actions if energy rises.
 SCF Done:  E(RHF) =  -149.923313434     A.U. after   10 cycles
            NFock= 10  Conv=0.22D-08     -V/T= 2.0009
 Variable Step   Value    
 -------- ---- -----------
     6       5    2.007129
 ---------------------------------------------------------------------------------------------------
                            Z-MATRIX (ANGSTROMS AND DEGREES)
   CD    Cent   Atom    N1       Length/X        N2       Alpha/Y        N3        Beta/Z          J
 ---------------------------------------------------------------------------------------------------
      1      1  O 
      2      2  H        1   0.960000(     1)
      3      3  O        1   1.320000(     2)      2  109.500(     4)
      4      4  H        3   0.960000(     3)      1  109.500(     5)      2  115.000(     6)      0
 ---------------------------------------------------------------------------------------------------
                         Z-Matrix orientation:                         
 ---------------------------------------------------------------------
 Center     Atomic      Atomic             Coordinates (Angstroms)
 Number     Number       Type             X           Y           Z
 ---------------------------------------------------------------------
      1          8           0        0.000000    0.000000    0.000000
      2          1           0        0.000000    0.000000    0.960000
      3          8           0        1.244287    0.000000   -0.440625
      4          1           0        1.418699   -0.820150   -0.908101
 ---------------------------------------------------------------------
                    Distance matrix (angstroms):
                    1          2          3          4
     1  O    0.000000
     2  H    0.960000   0.000000
     3  O    1.320000   1.873499   0.000000
     4  H    1.873499   2.484986   0.960000   0.000000
 Stoichiometry    H2O2
 Framework group  C2[X(H2O2)]
 Deg. of freedom     4
 Full point group                 C2      NOp   2
 Largest Abelian subgroup         C2      NOp   2
 Largest concise Abelian subgroup C2      NOp   2
                         Standard orientation:                         
 ---------------------------------------------------------------------
 Center     Atomic      Atomic             Coordinates (Angstroms)
 Number     Number       Type             X           Y           Z
 ---------------------------------------------------------------------
      1          8           0        0.000000    0.660000   -0.054025
      2          1           0        0.763215    0.980455    0.432197
      3          8           0        0.000000   -0.660000   -0.054025
      4          1           0       -0.763215   -0.980455    0.432197
 ---------------------------------------------------------------------
 Rotational constants (GHZ):    343.9811729     30.6776382     29.6470709
 Standard basis: 3-21G (6D, 7F)
 There are    11 symmetry adapted cartesian basis functions of A   symmetry.
 There are    11 symmetry adapted cartesian basis functions of B   symmetry.
 There are    11 symmetry adapted basis functions of A   symmetry.
 There are    11 symmetry adapted basis functions of B   symmetry.
    22 basis functions,    36 primitive gaussians,    22 cartesian basis functions
     9 alpha electrons        9 beta electrons
       nuclear repulsion energy        39.2089090213 Hartrees.
 NAtoms=    4 NActive=    4 NUniq=    2 SFac= 4.00D+00 NAtFMM=   60 NAOKFM=F Big=F
 Integral buffers will be    131072 words long.
 Raffenetti 1 integral format.
 Two-electron integral symmetry is turned on.
 One-electron integrals computed using PRISM.
 NBasis=    22 RedAO= T EigKep=  4.36D-02  NBF=    11    11
 NBsUse=    22 1.00D-06 EigRej= -1.00D+00 NBFU=    11    11
 Initial guess from the checkpoint file:  "peroxide.chk"
 B after Tr=     0.000000    0.000000    0.000000
         Rot=    0.999998    0.000000    0.000000    0.002146 Ang=   0.25 deg.
 Initial guess orbital symmetries:
       Occupied  (A) (B) (A) (B) (A) (B) (A) (A) (B)
       Virtual   (A) (A) (A) (A) (A) (A) (B) (B) (B) (B) (B) (B)
                 (B)
 ExpMin= 1.83D-01 ExpMax= 3.22D+02 ExpMxC= 3.22D+02 IAcc=1 IRadAn=         1 AccDes= 0.00D+00
 Harris functional with IExCor=  205 and IRadAn=       1 diagonalized for initial guess.
 HarFok:  IExCor=  205 AccDes= 0.00D+00 IRadAn=         1 IDoV= 1 UseB2=F ITyADJ=14
 ICtDFT=  3500011 ScaDFX=  1.000000  1.000000  1.000000  1.000000
 FoFCou: FMM=F IPFlag=           0 FMFlag=      100000 FMFlg1=           0
         NFxFlg=           0 DoJE=T BraDBF=F KetDBF=T FulRan=T
         wScrn=  0.000000 ICntrl=     500 IOpCl=  0 I1Cent=   200000004 NGrid=           0
         NMat0=    1 NMatS0=      1 NMatT0=    0 NMatD0=    1 NMtDS0=    0 NMtDT0=    0
 Petite list used in FoFCou.
 Keep R1 ints in memory in symmetry-blocked form, NReq=857126.
 Requested convergence on RMS density matrix=1.00D-08 within 128 cycles.
 Requested convergence on MAX density matrix=1.00D-06.
 Requested convergence on             energy=1.00D-06.
 No special actions if energy rises.
 SCF Done:  E(RHF) =  -149.923280992     A.U. after   10 cycles
            NFock= 10  Conv=0.19D-08     -V/T= 2.0009
 Variable Step   Value    
 -------- ---- -----------
     6       6    2.094395
 ---------------------------------------------------------------------------------------------------
                            Z-MATRIX (ANGSTROMS AND DEGREES)
   CD    Cent   Atom    N1       Length/X        N2       Alpha/Y        N3        Beta/Z          J
 ---------------------------------------------------------------------------------------------------
      1      1  O 
      2      2  H        1   0.960000(     1)
      3      3  O        1   1.320000(     2)      2  109.500(     4)
      4      4  H        3   0.960000(     3)      1  109.500(     5)      2  120.000(     6)      0
 ---------------------------------------------------------------------------------------------------
                         Z-Matrix orientation:                         
 ---------------------------------------------------------------------
 Center     Atomic      Atomic             Coordinates (Angstroms)
 Number     Number       Type             X           Y           Z
 ---------------------------------------------------------------------
      1          8           0        0.000000    0.000000    0.000000
      2          1           0        0.000000    0.000000    0.960000
      3          8           0        1.244287    0.000000   -0.440625
      4          1           0        1.395324   -0.783697   -0.974110
 ---------------------------------------------------------------------
                    Distance matrix (angstroms):
                    1          2          3          4
     1  O    0.000000
     2  H    0.960000   0.000000
     3  O    1.320000   1.873499   0.000000
     4  H    1.873499   2.510357   0.960000   0.000000
 Stoichiometry    H2O2
 Framework group  C2[X(H2O2)]
 Deg. of freedom     4
 Full point group                 C2      NOp   2
 Largest Abelian subgroup         C2      NOp   2
 Largest concise Abelian subgroup C2      NOp   2
                         Standard orientation:                         
 ---------------------------------------------------------------------
 Center     Atomic      Atomic             Coordinates (Angstroms)
 Number     Number       Type             X           Y           Z
 ---------------------------------------------------------------------
      1          8           0        0.000000    0.660000   -0.050274
      2          1           0        0.783697    0.980455    0.402194
      3          8           0        0.000000   -0.660000   -0.050274
      4          1           0       -0.783697   -0.980455    0.402194
 ---------------------------------------------------------------------
 Rotational constants (GHZ):    345.1903012     30.7731810     29.5364132
 Standard basis: 3-21G (6D, 7F)
 There are    11 symmetry adapted cartesian basis functions of A   symmetry.
 There are    11 symmetry adapted cartesian basis functions of B   symmetry.
 There are    11 symmetry adapted basis functions of A   symmetry.
 There are    11 symmetry adapted basis functions of B   symmetry.
    22 basis functions,    36 primitive gaussians,    22 cartesian basis functions
     9 alpha electrons        9 beta electrons
       nuclear repulsion energy        39.2067568317 Hartrees.
 NAtoms=    4 NActive=    4 NUniq=    2 SFac= 4.00D+00 NAtFMM=   60 NAOKFM=F Big=F
 Integral buffers will be    131072 words long.
 Raffenetti 1 integral format.
 Two-electron integral symmetry is turned on.
 One-electron integrals computed using PRISM.
 NBasis=    22 RedAO= T EigKep=  4.36D-02  NBF=    11    11
 NBsUse=    22 1.00D-06 EigRej= -1.00D+00 NBFU=    11    11
 Initial guess from the checkpoint file:  "peroxide.chk"
 B after Tr=     0.000000    0.000000    0.000000
         Rot=    0.999998    0.000000    0.000000    0.001991 Ang=   0.23 deg.
 Initial guess orbital symmetries:
       Occupied  (A) (B) (A) (B) (A) (B) (A) (A) (B)
       Virtual   (A) (A) (A) (A) (A) (A) (B) (B) (B) (B) (B) (B)
                 (B)
 ExpMin= 1.83D-01 ExpMax= 3.22D+02 ExpMxC= 3.22D+02 IAcc=1 IRadAn=         1 AccDes= 0.00D+00
 Harris functional with IExCor=  205 and IRadAn=       1 diagonalized for initial guess.
 HarFok:  IExCor=  205 AccDes= 0.00D+00 IRadAn=         1 IDoV= 1 UseB2=F ITyADJ=14
 ICtDFT=  3500011 ScaDFX=  1.000000  1.000000  1.000000  1.000000
 FoFCou: FMM=F IPFlag=           0 FMFlag=      100000 FMFlg1=           0
         NFxFlg=           0 DoJE=T BraDBF=F KetDBF=T FulRan=T
         wScrn=  0.000000 ICntrl=     500 IOpCl=  0 I1Cent=   200000004 NGrid=           0
         NMat0=    1 NMatS0=      1 NMatT0=    0 NMatD0=    1 NMtDS0=    0 NMtDT0=    0
 Petite list used in FoFCou.
 Keep R1 ints in memory in symmetry-blocked form, NReq=857126.
 Requested convergence on RMS density matrix=1.00D-08 within 128 cycles.
 Requested convergence on MAX density matrix=1.00D-06.
 Requested convergence on             energy=1.00D-06.
 No special actions if energy rises.
 SCF Done:  E(RHF) =  -149.923158517     A.U. after   10 cycles
            NFock= 10  Conv=0.17D-08     -V/T= 2.0009
 Variable Step   Value    
 -------- ---- -----------
     6       7    2.181662
 ---------------------------------------------------------------------------------------------------
                            Z-MATRIX (ANGSTROMS AND DEGREES)
   CD    Cent   Atom    N1       Length/X        N2       Alpha/Y        N3        Beta/Z          J
 ---------------------------------------------------------------------------------------------------
      1      1  O 
      2      2  H        1   0.960000(     1)
      3      3  O        1   1.320000(     2)      2  109.500(     4)
      4      4  H        3   0.960000(     3)      1  109.500(     5)      2  125.000(     6)      0
 ---------------------------------------------------------------------------------------------------
                         Z-Matrix orientation:                         
 ---------------------------------------------------------------------
 Center     Atomic      Atomic             Coordinates (Angstroms)
 Number     Number       Type             X           Y           Z
 ---------------------------------------------------------------------
      1          8           0        0.000000    0.000000    0.000000
      2          1           0        0.000000    0.000000    0.960000
      3          8           0        1.244287    0.000000   -0.440625
      4          1           0        1.373098   -0.741280   -1.036873
 ---------------------------------------------------------------------
                    Distance matrix (angstroms):
                    1          2          3          4
     1  O    0.000000
     2  H    0.960000   0.000000
     3  O    1.320000   1.873499   0.000000
     4  H    1.873499   2.534245   0.960000   0.000000
 Stoichiometry    H2O2
 Framework group  C2[X(H2O2)]
 Deg. of freedom     4
 Full point group                 C2      NOp   2
 Largest Abelian subgroup         C2      NOp   2
 Largest concise Abelian subgroup C2      NOp   2
                         Standard orientation:                         
 ---------------------------------------------------------------------
 Center     Atomic      Atomic             Coordinates (Angstroms)
 Number     Number       Type             X           Y           Z
 ---------------------------------------------------------------------
      1          8           0        0.000000    0.660000   -0.046428
      2          1           0        0.802688    0.980455    0.371425
      3          8           0        0.000000   -0.660000   -0.046428
      4          1           0       -0.802688   -0.980455    0.371425
 ---------------------------------------------------------------------
 Rotational constants (GHZ):    346.3623641     30.8644640     29.4319606
 Standard basis: 3-21G (6D, 7F)
 There are    11 symmetry adapted cartesian basis functions of A   symmetry.
 There are    11 symmetry adapted cartesian basis functions of B   symmetry.
 There are    11 symmetry adapted basis functions of A   symmetry.
 There are    11 symmetry adapted basis functions of B   symmetry.
    22 basis functions,    36 primitive gaussians,    22 cartesian basis functions
     9 alpha electrons        9 beta electrons
       nuclear repulsion energy        39.2047698467 Hartrees.
 NAtoms=    4 NActive=    4 NUniq=    2 SFac= 4.00D+00 NAtFMM=   60 NAOKFM=F Big=F
 Integral buffers will be    131072 words long.
 Raffenetti 1 integral format.
 Two-electron integral symmetry is turned on.
 One-electron integrals computed using PRISM.
 NBasis=    22 RedAO= T EigKep=  4.37D-02  NBF=    11    11
 NBsUse=    22 1.00D-06 EigRej= -1.00D+00 NBFU=    11    11
 Initial guess from the checkpoint file:  "peroxide.chk"
 B after Tr=     0.000000    0.000000    0.000000
         Rot=    0.999998    0.000000    0.000000    0.001834 Ang=   0.21 deg.
 Initial guess orbital symmetries:
       Occupied  (A) (B) (A) (B) (A) (B) (A) (A) (B)
       Virtual   (A) (A) (A) (A) (A) (A) (B) (B) (B) (B) (B) (B)
                 (B)
 ExpMin= 1.83D-01 ExpMax= 3.22D+02 ExpMxC= 3.22D+02 IAcc=1 IRadAn=         1 AccDes= 0.00D+00
 Harris functional with IExCor=  205 and IRadAn=       1 diagonalized for initial guess.
 HarFok:  IExCor=  205 AccDes= 0.00D+00 IRadAn=         1 IDoV= 1 UseB2=F ITyADJ=14
 ICtDFT=  3500011 ScaDFX=  1.000000  1.000000  1.000000  1.000000
 FoFCou: FMM=F IPFlag=           0 FMFlag=      100000 FMFlg1=           0
         NFxFlg=           0 DoJE=T BraDBF=F KetDBF=T FulRan=T
         wScrn=  0.000000 ICntrl=     500 IOpCl=  0 I1Cent=   200000004 NGrid=           0
         NMat0=    1 NMatS0=      1 NMatT0=    0 NMatD0=    1 NMtDS0=    0 NMtDT0=    0
 Petite list used in FoFCou.
 Keep R1 ints in memory in symmetry-blocked form, NReq=857126.
 Requested convergence on RMS density matrix=1.00D-08 within 128 cycles.
 Requested convergence on MAX density matrix=1.00D-06.
 Requested convergence on             energy=1.00D-06.
 No special actions if energy rises.
 SCF Done:  E(RHF) =  -149.922960922     A.U. after   10 cycles
            NFock= 10  Conv=0.15D-08     -V/T= 2.0009
 Variable Step   Value    
 -------- ---- -----------
     6       8    2.268928
 ---------------------------------------------------------------------------------------------------
                            Z-MATRIX (ANGSTROMS AND DEGREES)
   CD    Cent   Atom    N1       Length/X        N2       Alpha/Y        N3        Beta/Z          J
 ---------------------------------------------------------------------------------------------------
      1      1  O 
      2      2  H        1   0.960000(     1)
      3      3  O        1   1.320000(     2)      2  109.500(     4)
      4      4  H        3   0.960000(     3)      1  109.500(     5)      2  130.000(     6)      0
 ---------------------------------------------------------------------------------------------------
                         Z-Matrix orientation:                         
 ---------------------------------------------------------------------
 Center     Atomic      Atomic             Coordinates (Angstroms)
 Number     Number       Type             X           Y           Z
 ---------------------------------------------------------------------
      1          8           0        0.000000    0.000000    0.000000
      2          1           0        0.000000    0.000000    0.960000
      3          8           0        1.244287    0.000000   -0.440625
      4          1           0        1.352191   -0.693221   -1.095912
 ---------------------------------------------------------------------
                    Distance matrix (angstroms):
                    1          2          3          4
     1  O    0.000000
     2  H    0.960000   0.000000
     3  O    1.320000   1.873499   0.000000
     4  H    1.873499   2.556512   0.960000   0.000000
 Stoichiometry    H2O2
 Framework group  C2[X(H2O2)]
 Deg. of freedom     4
 Full point group                 C2      NOp   2
 Largest Abelian subgroup         C2      NOp   2
 Largest concise Abelian subgroup C2      NOp   2
                         Standard orientation:                         
 ---------------------------------------------------------------------
 Center     Atomic      Atomic             Coordinates (Angstroms)
 Number     Number       Type             X           Y           Z
 ---------------------------------------------------------------------
      1          8           0        0.000000    0.660000   -0.042494
      2          1           0        0.820150    0.980455    0.339949
      3          8           0        0.000000   -0.660000   -0.042494
      4          1           0       -0.820150   -0.980455    0.339949
 ---------------------------------------------------------------------
 Rotational constants (GHZ):    347.4852621     30.9507231     29.3343772
 Standard basis: 3-21G (6D, 7F)
 There are    11 symmetry adapted cartesian basis functions of A   symmetry.
 There are    11 symmetry adapted cartesian basis functions of B   symmetry.
 There are    11 symmetry adapted basis functions of A   symmetry.
 There are    11 symmetry adapted basis functions of B   symmetry.
    22 basis functions,    36 primitive gaussians,    22 cartesian basis functions
     9 alpha electrons        9 beta electrons
       nuclear repulsion energy        39.2029511332 Hartrees.
 NAtoms=    4 NActive=    4 NUniq=    2 SFac= 4.00D+00 NAtFMM=   60 NAOKFM=F Big=F
 Integral buffers will be    131072 words long.
 Raffenetti 1 integral format.
 Two-electron integral symmetry is turned on.
 One-electron integrals computed using PRISM.
 NBasis=    22 RedAO= T EigKep=  4.37D-02  NBF=    11    11
 NBsUse=    22 1.00D-06 EigRej= -1.00D+00 NBFU=    11    11
 Initial guess from the checkpoint file:  "peroxide.chk"
 B after Tr=     0.000000    0.000000    0.000000
         Rot=    0.999999    0.000000    0.000000    0.001677 Ang=   0.19 deg.
 Initial guess orbital symmetries:
       Occupied  (A) (B) (A) (B) (A) (B) (A) (A) (B)
       Virtual   (A) (A) (A) (A) (A) (A) (B) (B) (B) (B) (B) (B)
                 (B)
 ExpMin= 1.83D-01 ExpMax= 3.22D+02 ExpMxC= 3.22D+02 IAcc=1 IRadAn=         1 AccDes= 0.00D+00
 Harris functional with IExCor=  205 and IRadAn=       1 diagonalized for initial guess.
 HarFok:  IExCor=  205 AccDes= 0.00D+00 IRadAn=         1 IDoV= 1 UseB2=F ITyADJ=14
 ICtDFT=  3500011 ScaDFX=  1.000000  1.000000  1.000000  1.000000
 FoFCou: FMM=F IPFlag=           0 FMFlag=      100000 FMFlg1=           0
         NFxFlg=           0 DoJE=T BraDBF=F KetDBF=T FulRan=T
         wScrn=  0.000000 ICntrl=     500 IOpCl=  0 I1Cent=   200000004 NGrid=           0
         NMat0=    1 NMatS0=      1 NMatT0=    0 NMatD0=    1 NMtDS0=    0 NMtDT0=    0
 Petite list used in FoFCou.
 Keep R1 ints in memory in symmetry-blocked form, NReq=857126.
 Requested convergence on RMS density matrix=1.00D-08 within 128 cycles.
 Requested convergence on MAX density matrix=1.00D-06.
 Requested convergence on             energy=1.00D-06.
 No special actions if energy rises.
 SCF Done:  E(RHF) =  -149.922704278     A.U. after   10 cycles
            NFock= 10  Conv=0.14D-08     -V/T= 2.0009
 Variable Step   Value    
 -------- ---- -----------
     6       9    2.356194
 ---------------------------------------------------------------------------------------------------
                            Z-MATRIX (ANGSTROMS AND DEGREES)
   CD    Cent   Atom    N1       Length/X        N2       Alpha/Y        N3        Beta/Z          J
 ---------------------------------------------------------------------------------------------------
      1      1  O 
      2      2  H        1   0.960000(     1)
      3      3  O        1   1.320000(     2)      2  109.500(     4)
      4      4  H        3   0.960000(     3)      1  109.500(     5)      2  135.000(     6)      0
 ---------------------------------------------------------------------------------------------------
                         Z-Matrix orientation:                         
 ---------------------------------------------------------------------
 Center     Atomic      Atomic             Coordinates (Angstroms)
 Number     Number       Type             X           Y           Z
 ---------------------------------------------------------------------
      1          8           0        0.000000    0.000000    0.000000
      2          1           0        0.000000    0.000000    0.960000
      3          8           0        1.244287    0.000000   -0.440625
      4          1           0        1.332762   -0.639886   -1.150778
 ---------------------------------------------------------------------
                    Distance matrix (angstroms):
                    1          2          3          4
     1  O    0.000000
     2  H    0.960000   0.000000
     3  O    1.320000   1.873499   0.000000
     4  H    1.873499   2.577032   0.960000   0.000000
 Stoichiometry    H2O2
 Framework group  C2[X(H2O2)]
 Deg. of freedom     4
 Full point group                 C2      NOp   2
 Largest Abelian subgroup         C2      NOp   2
 Largest concise Abelian subgroup C2      NOp   2
                         Standard orientation:                         
 ---------------------------------------------------------------------
 Center     Atomic      Atomic             Coordinates (Angstroms)
 Number     Number       Type             X           Y           Z
 ---------------------------------------------------------------------
      1          8           0        0.000000    0.660000   -0.038478
      2          1           0        0.836052    0.980455    0.307826
      3          8           0        0.000000   -0.660000   -0.038478
      4          1           0       -0.836052   -0.980455    0.307826
 ---------------------------------------------------------------------
 Rotational constants (GHZ):    348.5468736     31.0312272     29.2442696
 Standard basis: 3-21G (6D, 7F)
 There are    11 symmetry adapted cartesian basis functions of A   symmetry.
 There are    11 symmetry adapted cartesian basis functions of B   symmetry.
 There are    11 symmetry adapted basis functions of A   symmetry.
 There are    11 symmetry adapted basis functions of B   symmetry.
    22 basis functions,    36 primitive gaussians,    22 cartesian basis functions
     9 alpha electrons        9 beta electrons
       nuclear repulsion energy        39.2013028862 Hartrees.
 NAtoms=    4 NActive=    4 NUniq=    2 SFac= 4.00D+00 NAtFMM=   60 NAOKFM=F Big=F
 Integral buffers will be    131072 words long.
 Raffenetti 1 integral format.
 Two-electron integral symmetry is turned on.
 One-electron integrals computed using PRISM.
 NBasis=    22 RedAO= T EigKep=  4.37D-02  NBF=    11    11
 NBsUse=    22 1.00D-06 EigRej= -1.00D+00 NBFU=    11    11
 Initial guess from the checkpoint file:  "peroxide.chk"
 B after Tr=     0.000000    0.000000    0.000000
         Rot=    0.999999    0.000000    0.000000    0.001519 Ang=   0.17 deg.
 Initial guess orbital symmetries:
       Occupied  (A) (B) (A) (B) (A) (B) (A) (A) (B)
       Virtual   (A) (A) (A) (A) (A) (A) (B) (B) (B) (B) (B) (B)
                 (B)
 ExpMin= 1.83D-01 ExpMax= 3.22D+02 ExpMxC= 3.22D+02 IAcc=1 IRadAn=         1 AccDes= 0.00D+00
 Harris functional with IExCor=  205 and IRadAn=       1 diagonalized for initial guess.
 HarFok:  IExCor=  205 AccDes= 0.00D+00 IRadAn=         1 IDoV= 1 UseB2=F ITyADJ=14
 ICtDFT=  3500011 ScaDFX=  1.000000  1.000000  1.000000  1.000000
 FoFCou: FMM=F IPFlag=           0 FMFlag=      100000 FMFlg1=           0
         NFxFlg=           0 DoJE=T BraDBF=F KetDBF=T FulRan=T
         wScrn=  0.000000 ICntrl=     500 IOpCl=  0 I1Cent=   200000004 NGrid=           0
         NMat0=    1 NMatS0=      1 NMatT0=    0 NMatD0=    1 NMtDS0=    0 NMtDT0=    0
 Petite list used in FoFCou.
 Keep R1 ints in memory in symmetry-blocked form, NReq=857126.
 Requested convergence on RMS density matrix=1.00D-08 within 128 cycles.
 Requested convergence on MAX density matrix=1.00D-06.
 Requested convergence on             energy=1.00D-06.
 No special actions if energy rises.
 SCF Done:  E(RHF) =  -149.922405344     A.U. after   10 cycles
            NFock= 10  Conv=0.12D-08     -V/T= 2.0009
 Variable Step   Value    
 -------- ---- -----------
     6      10    2.443461
 ---------------------------------------------------------------------------------------------------
                            Z-MATRIX (ANGSTROMS AND DEGREES)
   CD    Cent   Atom    N1       Length/X        N2       Alpha/Y        N3        Beta/Z          J
 ---------------------------------------------------------------------------------------------------
      1      1  O 
      2      2  H        1   0.960000(     1)
      3      3  O        1   1.320000(     2)      2  109.500(     4)
      4      4  H        3   0.960000(     3)      1  109.500(     5)      2  140.000(     6)      0
 ---------------------------------------------------------------------------------------------------
                         Z-Matrix orientation:                         
 ---------------------------------------------------------------------
 Center     Atomic      Atomic             Coordinates (Angstroms)
 Number     Number       Type             X           Y           Z
 ---------------------------------------------------------------------
      1          8           0        0.000000    0.000000    0.000000
      2          1           0        0.000000    0.000000    0.960000
      3          8           0        1.244287    0.000000   -0.440625
      4          1           0        1.314959   -0.581682   -1.201054
 ---------------------------------------------------------------------
                    Distance matrix (angstroms):
                    1          2          3          4
     1  O    0.000000
     2  H    0.960000   0.000000
     3  O    1.320000   1.873499   0.000000
     4  H    1.873499   2.595693   0.960000   0.000000
 Stoichiometry    H2O2
 Framework group  C2[X(H2O2)]
 Deg. of freedom     4
 Full point group                 C2      NOp   2
 Largest Abelian subgroup         C2      NOp   2
 Largest concise Abelian subgroup C2      NOp   2
                         Standard orientation:                         
 ---------------------------------------------------------------------
 Center     Atomic      Atomic             Coordinates (Angstroms)
 Number     Number       Type             X           Y           Z
 ---------------------------------------------------------------------
      1          8           0        0.000000    0.660000   -0.034390
      2          1           0        0.850362    0.980455    0.275117
      3          8           0        0.000000   -0.660000   -0.034390
      4          1           0       -0.850362   -0.980455    0.275117
 ---------------------------------------------------------------------
 Rotational constants (GHZ):    349.5352608     31.1052858     29.1621858
 Standard basis: 3-21G (6D, 7F)
 There are    11 symmetry adapted cartesian basis functions of A   symmetry.
 There are    11 symmetry adapted cartesian basis functions of B   symmetry.
 There are    11 symmetry adapted basis functions of A   symmetry.
 There are    11 symmetry adapted basis functions of B   symmetry.
    22 basis functions,    36 primitive gaussians,    22 cartesian basis functions
     9 alpha electrons        9 beta electrons
       nuclear repulsion energy        39.1998266122 Hartrees.
 NAtoms=    4 NActive=    4 NUniq=    2 SFac= 4.00D+00 NAtFMM=   60 NAOKFM=F Big=F
 Integral buffers will be    131072 words long.
 Raffenetti 1 integral format.
 Two-electron integral symmetry is turned on.
 One-electron integrals computed using PRISM.
 NBasis=    22 RedAO= T EigKep=  4.38D-02  NBF=    11    11
 NBsUse=    22 1.00D-06 EigRej= -1.00D+00 NBFU=    11    11
 Initial guess from the checkpoint file:  "peroxide.chk"
 B after Tr=     0.000000    0.000000    0.000000
         Rot=    0.999999    0.000000    0.000000    0.001360 Ang=   0.16 deg.
 Initial guess orbital symmetries:
       Occupied  (A) (B) (A) (B) (A) (B) (A) (A) (B)
       Virtual   (A) (A) (A) (A) (A) (A) (B) (B) (B) (B) (B) (B)
                 (B)
 ExpMin= 1.83D-01 ExpMax= 3.22D+02 ExpMxC= 3.22D+02 IAcc=1 IRadAn=         1 AccDes= 0.00D+00
 Harris functional with IExCor=  205 and IRadAn=       1 diagonalized for initial guess.
 HarFok:  IExCor=  205 AccDes= 0.00D+00 IRadAn=         1 IDoV= 1 UseB2=F ITyADJ=14
 ICtDFT=  3500011 ScaDFX=  1.000000  1.000000  1.000000  1.000000
 FoFCou: FMM=F IPFlag=           0 FMFlag=      100000 FMFlg1=           0
         NFxFlg=           0 DoJE=T BraDBF=F KetDBF=T FulRan=T
         wScrn=  0.000000 ICntrl=     500 IOpCl=  0 I1Cent=   200000004 NGrid=           0
         NMat0=    1 NMatS0=      1 NMatT0=    0 NMatD0=    1 NMtDS0=    0 NMtDT0=    0
 Petite list used in FoFCou.
 Keep R1 ints in memory in symmetry-blocked form, NReq=857126.
 Requested convergence on RMS density matrix=1.00D-08 within 128 cycles.
 Requested convergence on MAX density matrix=1.00D-06.
 Requested convergence on             energy=1.00D-06.
 No special actions if energy rises.
 SCF Done:  E(RHF) =  -149.922081093     A.U. after   10 cycles
            NFock= 10  Conv=0.11D-08     -V/T= 2.0009
 Scan completed.

 Summary of the potential surface scan:
   N      D1          SCF    
 ----  ---------  -----------
    1    90.0000   -149.92231
    2    95.0000   -149.92275
    3   100.0000   -149.92306
    4   105.0000   -149.92324
    5   110.0000   -149.92331
    6   115.0000   -149.92328
    7   120.0000   -149.92316
    8   125.0000   -149.92296
    9   130.0000   -149.92270
   10   135.0000   -149.92241
   11   140.0000   -149.92208
 ----  ---------  -----------
  
 1\1\GINC-C0700A-S1\Scan\RHF\3-21G\H2O2\LE.CHEN\07-Oct-2021\1\\# scan h
 f/3-21g geom=connectivity\\Title Card Required\\0,1\O\H,1,B1\O,1,B2,2,
 A1\H,3,B3,1,A2,2,D1,0\\B1=0.96\B2=1.32\B3=0.96\A1=109.50000006\A2=109.
 50000006\D1=90.,s,10,5.\\Version=AS64L-G09RevD.01\HF=-149.9223099,-149
 .9227482,-149.9230571,-149.9232425,-149.9233134,-149.923281,-149.92315
 85,-149.9229609,-149.9227043,-149.9224053,-149.9220811\RMSD=9.807e-09,
 3.362e-09,2.947e-09,2.524e-09,2.184e-09,1.910e-09,1.686e-09,1.505e-09,
 1.357e-09,1.237e-09,1.137e-09\PG=C02 [X(H2O2)]\\@


 THE MOST INCOMPREHENSIBLE THING ABOUT THE WORLD
 IS THAT IT IS COMPREHENSIBLE. -- A. EINSTEIN
 Job cpu time:       0 days  0 hours  0 minutes  3.2 seconds.
 File lengths (MBytes):  RWF=      5 Int=      0 D2E=      0 Chk=      1 Scr=      1
 Normal termination of Gaussian 09 at Thu Oct  7 01:24:10 2021.
